 Entering Gaussian System, Link 0=g16
 Initial command:
 /misc/opt/app/gaussian/16/g16/l1.exe "/misc/work19/yilan/projects/PreQ1/1_modeling/Gau-1366479.inp" -scrdir="/misc/work19/yilan/projects/PreQ1/1_modeling/"
 Entering Link 1 = /misc/opt/app/gaussian/16/g16/l1.exe PID=   1366481.
  
 Copyright (c) 1988-2017, Gaussian, Inc.  All Rights Reserved.
  
 This is part of the Gaussian(R) 16 program.  It is based on
 the Gaussian(R) 09 system (copyright 2009, Gaussian, Inc.),
 the Gaussian(R) 03 system (copyright 2003, Gaussian, Inc.),
 the Gaussian(R) 98 system (copyright 1998, Gaussian, Inc.),
 the Gaussian(R) 94 system (copyright 1995, Gaussian, Inc.),
 the Gaussian 92(TM) system (copyright 1992, Gaussian, Inc.),
 the Gaussian 90(TM) system (copyright 1990, Gaussian, Inc.),
 the Gaussian 88(TM) system (copyright 1988, Gaussian, Inc.),
 the Gaussian 86(TM) system (copyright 1986, Carnegie Mellon
 University), and the Gaussian 82(TM) system (copyright 1983,
 Carnegie Mellon University). Gaussian is a federally registered
 trademark of Gaussian, Inc.
  
 This software contains proprietary and confidential information,
 including trade secrets, belonging to Gaussian, Inc.
  
 This software is provided under written license and may be
 used, copied, transmitted, or stored only in accord with that
 written license.
  
 The following legend is applicable only to US Government
 contracts under FAR:
  
                    RESTRICTED RIGHTS LEGEND
  
 Use, reproduction and disclosure by the US Government is
 subject to restrictions as set forth in subparagraphs (a)
 and (c) of the Commercial Computer Software - Restricted
 Rights clause in FAR 52.227-19.
  
 Gaussian, Inc.
 340 Quinnipiac St., Bldg. 40, Wallingford CT 06492
  
  
 ---------------------------------------------------------------
 Warning -- This program may not be used in any manner that
 competes with the business of Gaussian, Inc. or will provide
 assistance to any competitor of Gaussian, Inc.  The licensee
 of this program is prohibited from giving any competitor of
 Gaussian, Inc. access to this program.  By using this program,
 the user acknowledges that Gaussian, Inc. is engaged in the
 business of creating and licensing software in the field of
 computational chemistry and represents and warrants to the
 licensee that it is not a competitor of Gaussian, Inc. and that
 it will not use this program in any manner prohibited above.
 ---------------------------------------------------------------
  

 Cite this work as:
 Gaussian 16, Revision B.01,
 M. J. Frisch, G. W. Trucks, H. B. Schlegel, G. E. Scuseria, 
 M. A. Robb, J. R. Cheeseman, G. Scalmani, V. Barone, 
 G. A. Petersson, H. Nakatsuji, X. Li, M. Caricato, A. V. Marenich, 
 J. Bloino, B. G. Janesko, R. Gomperts, B. Mennucci, H. P. Hratchian, 
 J. V. Ortiz, A. F. Izmaylov, J. L. Sonnenberg, D. Williams-Young, 
 F. Ding, F. Lipparini, F. Egidi, J. Goings, B. Peng, A. Petrone, 
 T. Henderson, D. Ranasinghe, V. G. Zakrzewski, J. Gao, N. Rega, 
 G. Zheng, W. Liang, M. Hada, M. Ehara, K. Toyota, R. Fukuda, 
 J. Hasegawa, M. Ishida, T. Nakajima, Y. Honda, O. Kitao, H. Nakai, 
 T. Vreven, K. Throssell, J. A. Montgomery, Jr., J. E. Peralta, 
 F. Ogliaro, M. J. Bearpark, J. J. Heyd, E. N. Brothers, K. N. Kudin, 
 V. N. Staroverov, T. A. Keith, R. Kobayashi, J. Normand, 
 K. Raghavachari, A. P. Rendell, J. C. Burant, S. S. Iyengar, 
 J. Tomasi, M. Cossi, J. M. Millam, M. Klene, C. Adamo, R. Cammi, 
 J. W. Ochterski, R. L. Martin, K. Morokuma, O. Farkas, 
 J. B. Foresman, and D. J. Fox, Gaussian, Inc., Wallingford CT, 2016.
 
 ******************************************
 Gaussian 16:  ES64L-G16RevB.01 20-Dec-2017
                28-Oct-2025 
 ******************************************
 %chk=molecule
 %NProcShared=8
 Will use up to    8 processors via shared memory.
 ------------------------------------------------------------
 #HF/6-31G* SCF=tight Test Pop=MK iop(6/33=2) iop(6/42=6) opt
 ------------------------------------------------------------
 1/18=20,19=15,38=1/1,3;
 2/9=110,12=2,17=6,18=5,40=1/2;
 3/5=1,6=6,7=1,11=9,25=1,30=1,71=1/1,2,3;
 4//1;
 5/5=2,32=2,38=5/2;
 6/7=2,8=2,9=2,10=2,15=8,20=1,28=1,33=2,42=6/1,2;
 7//1,2,3,16;
 1/18=20,19=15/3(2);
 2/9=110/2;
 99//99;
 2/9=110/2;
 3/5=1,6=6,7=1,11=9,25=1,30=1,71=1/1,2,3;
 4/5=5,16=3,69=1/1;
 5/5=2,32=2,38=5/2;
 7//1,2,3,16;
 1/18=20,19=15/3(-5);
 2/9=110/2;
 6/7=2,8=2,9=2,10=2,15=8,19=2,20=1,28=1,33=2,42=6/1,2;
 99/9=1/99;
 ---------------------
 remark line goes here
 ---------------------
 Symbolic Z-matrix:
 Charge =  0 Multiplicity = 1
 N                     34.237    33.908    23.164 
 C                     33.63     32.772    23.73 
 N                     34.006    32.166    24.882 
 C                     35.097    32.797    25.472 
 C                     35.773    33.918    24.975 
 C                     35.363    34.533    23.783 
 O                     35.856    35.52     23.257 
 C                     36.822    34.252    25.862 
 C                     37.733    35.412    25.664 
 N                     38.843    35.378    26.629 
 C                     36.777    33.322    26.889 
 N                     35.713    32.416    26.65 
 N                     32.531    32.255    23.057 
 H                     32.2288   32.6694   22.2166 
 H                     32.054    31.4741   23.4202 
 H                     33.8791   34.2794   22.3254 
 H                     37.1803   36.3184   25.7975 
 H                     38.1381   35.3638   24.6748 
 H                     38.4705   35.4234   27.5775 
 H                     39.4588   36.1749   26.4671 
 H                     35.4589   31.654    27.2193 
 H                     37.4163   33.2936   27.6987 
 

 GradGradGradGradGradGradGradGradGradGradGradGradGradGradGradGradGradGrad
 Berny optimization.
 Initialization pass.
                           ----------------------------
                           !    Initial Parameters    !
                           ! (Angstroms and Degrees)  !
 --------------------------                            --------------------------
 ! Name  Definition              Value          Derivative Info.                !
 --------------------------------------------------------------------------------
 ! R1    R(1,2)                  1.4069         estimate D2E/DX2                !
 ! R2    R(1,6)                  1.4289         estimate D2E/DX2                !
 ! R3    R(1,16)                 0.9845         estimate D2E/DX2                !
 ! R4    R(2,3)                  1.3549         estimate D2E/DX2                !
 ! R5    R(2,13)                 1.3885         estimate D2E/DX2                !
 ! R6    R(3,4)                  1.3916         estimate D2E/DX2                !
 ! R7    R(4,5)                  1.4002         estimate D2E/DX2                !
 ! R8    R(4,12)                 1.3829         estimate D2E/DX2                !
 ! R9    R(5,6)                  1.4026         estimate D2E/DX2                !
 ! R10   R(5,8)                  1.4138         estimate D2E/DX2                !
 ! R11   R(6,7)                  1.2222         estimate D2E/DX2                !
 ! R12   R(8,9)                  1.4882         estimate D2E/DX2                !
 ! R13   R(8,11)                 1.3862         estimate D2E/DX2                !
 ! R14   R(9,10)                 1.4712         estimate D2E/DX2                !
 ! R15   R(9,17)                 1.07           estimate D2E/DX2                !
 ! R16   R(9,18)                 1.07           estimate D2E/DX2                !
 ! R17   R(10,19)                1.02           estimate D2E/DX2                !
 ! R18   R(10,20)                1.02           estimate D2E/DX2                !
 ! R19   R(11,12)                1.4178         estimate D2E/DX2                !
 ! R20   R(11,22)                1.032          estimate D2E/DX2                !
 ! R21   R(12,21)                0.9845         estimate D2E/DX2                !
 ! R22   R(13,14)                0.9845         estimate D2E/DX2                !
 ! R23   R(13,15)                0.9845         estimate D2E/DX2                !
 ! A1    A(2,1,6)              121.259          estimate D2E/DX2                !
 ! A2    A(2,1,16)             119.3697         estimate D2E/DX2                !
 ! A3    A(6,1,16)             119.3713         estimate D2E/DX2                !
 ! A4    A(1,2,3)              125.6961         estimate D2E/DX2                !
 ! A5    A(1,2,13)             116.5604         estimate D2E/DX2                !
 ! A6    A(3,2,13)             117.7244         estimate D2E/DX2                !
 ! A7    A(2,3,4)              112.0395         estimate D2E/DX2                !
 ! A8    A(3,4,5)              126.2297         estimate D2E/DX2                !
 ! A9    A(3,4,12)             125.8361         estimate D2E/DX2                !
 ! A10   A(5,4,12)             107.9315         estimate D2E/DX2                !
 ! A11   A(4,5,6)              120.7686         estimate D2E/DX2                !
 ! A12   A(4,5,8)              108.9452         estimate D2E/DX2                !
 ! A13   A(6,5,8)              130.2798         estimate D2E/DX2                !
 ! A14   A(1,6,5)              114.0            estimate D2E/DX2                !
 ! A15   A(1,6,7)              118.9892         estimate D2E/DX2                !
 ! A16   A(5,6,7)              127.0077         estimate D2E/DX2                !
 ! A17   A(5,8,9)              123.7028         estimate D2E/DX2                !
 ! A18   A(5,8,11)             106.3935         estimate D2E/DX2                !
 ! A19   A(9,8,11)             129.8941         estimate D2E/DX2                !
 ! A20   A(8,9,10)             110.8898         estimate D2E/DX2                !
 ! A21   A(8,9,17)             109.1167         estimate D2E/DX2                !
 ! A22   A(8,9,18)             108.6412         estimate D2E/DX2                !
 ! A23   A(10,9,17)            109.115          estimate D2E/DX2                !
 ! A24   A(10,9,18)            108.6446         estimate D2E/DX2                !
 ! A25   A(17,9,18)            110.4301         estimate D2E/DX2                !
 ! A26   A(9,10,19)            109.4734         estimate D2E/DX2                !
 ! A27   A(9,10,20)            109.4704         estimate D2E/DX2                !
 ! A28   A(19,10,20)           109.468          estimate D2E/DX2                !
 ! A29   A(8,11,12)            109.1588         estimate D2E/DX2                !
 ! A30   A(8,11,22)            125.422          estimate D2E/DX2                !
 ! A31   A(12,11,22)           125.4191         estimate D2E/DX2                !
 ! A32   A(4,12,11)            107.5682         estimate D2E/DX2                !
 ! A33   A(4,12,21)            126.2175         estimate D2E/DX2                !
 ! A34   A(11,12,21)           126.2143         estimate D2E/DX2                !
 ! A35   A(2,13,14)            119.9965         estimate D2E/DX2                !
 ! A36   A(2,13,15)            120.0004         estimate D2E/DX2                !
 ! A37   A(14,13,15)           120.0031         estimate D2E/DX2                !
 ! D1    D(6,1,2,3)              0.7639         estimate D2E/DX2                !
 ! D2    D(6,1,2,13)           179.1333         estimate D2E/DX2                !
 ! D3    D(16,1,2,3)          -179.2367         estimate D2E/DX2                !
 ! D4    D(16,1,2,13)           -0.8674         estimate D2E/DX2                !
 ! D5    D(2,1,6,5)             -0.4202         estimate D2E/DX2                !
 ! D6    D(2,1,6,7)           -179.8273         estimate D2E/DX2                !
 ! D7    D(16,1,6,5)           179.5805         estimate D2E/DX2                !
 ! D8    D(16,1,6,7)             0.1733         estimate D2E/DX2                !
 ! D9    D(1,2,3,4)             -0.258          estimate D2E/DX2                !
 ! D10   D(13,2,3,4)          -178.6103         estimate D2E/DX2                !
 ! D11   D(1,2,13,14)            1.4979         estimate D2E/DX2                !
 ! D12   D(1,2,13,15)         -178.501          estimate D2E/DX2                !
 ! D13   D(3,2,13,14)         -179.9981         estimate D2E/DX2                !
 ! D14   D(3,2,13,15)            0.0029         estimate D2E/DX2                !
 ! D15   D(2,3,4,5)             -0.5622         estimate D2E/DX2                !
 ! D16   D(2,3,4,12)          -179.8819         estimate D2E/DX2                !
 ! D17   D(3,4,5,6)              0.8812         estimate D2E/DX2                !
 ! D18   D(3,4,5,8)           -179.9455         estimate D2E/DX2                !
 ! D19   D(12,4,5,6)          -179.6985         estimate D2E/DX2                !
 ! D20   D(12,4,5,8)            -0.5251         estimate D2E/DX2                !
 ! D21   D(3,4,12,11)          179.9264         estimate D2E/DX2                !
 ! D22   D(3,4,12,21)           -0.0713         estimate D2E/DX2                !
 ! D23   D(5,4,12,11)            0.5031         estimate D2E/DX2                !
 ! D24   D(5,4,12,21)         -179.4946         estimate D2E/DX2                !
 ! D25   D(4,5,6,1)             -0.3222         estimate D2E/DX2                !
 ! D26   D(4,5,6,7)            179.0284         estimate D2E/DX2                !
 ! D27   D(8,5,6,1)           -179.2974         estimate D2E/DX2                !
 ! D28   D(8,5,6,7)              0.0532         estimate D2E/DX2                !
 ! D29   D(4,5,8,9)           -178.6371         estimate D2E/DX2                !
 ! D30   D(4,5,8,11)             0.3333         estimate D2E/DX2                !
 ! D31   D(6,5,8,9)              0.4318         estimate D2E/DX2                !
 ! D32   D(6,5,8,11)           179.4022         estimate D2E/DX2                !
 ! D33   D(5,8,9,10)          -171.1673         estimate D2E/DX2                !
 ! D34   D(5,8,9,17)            68.6176         estimate D2E/DX2                !
 ! D35   D(5,8,9,18)           -51.8344         estimate D2E/DX2                !
 ! D36   D(11,8,9,10)           10.1201         estimate D2E/DX2                !
 ! D37   D(11,8,9,17)         -110.095          estimate D2E/DX2                !
 ! D38   D(11,8,9,18)          129.453          estimate D2E/DX2                !
 ! D39   D(5,8,11,12)           -0.0202         estimate D2E/DX2                !
 ! D40   D(5,8,11,22)          179.9769         estimate D2E/DX2                !
 ! D41   D(9,8,11,12)          178.8634         estimate D2E/DX2                !
 ! D42   D(9,8,11,22)           -1.1395         estimate D2E/DX2                !
 ! D43   D(8,9,10,19)          -60.6715         estimate D2E/DX2                !
 ! D44   D(8,9,10,20)          179.3316         estimate D2E/DX2                !
 ! D45   D(17,9,10,19)          59.5446         estimate D2E/DX2                !
 ! D46   D(17,9,10,20)         -60.4523         estimate D2E/DX2                !
 ! D47   D(18,9,10,19)         179.9976         estimate D2E/DX2                !
 ! D48   D(18,9,10,20)          60.0007         estimate D2E/DX2                !
 ! D49   D(8,11,12,4)           -0.3016         estimate D2E/DX2                !
 ! D50   D(8,11,12,21)         179.6961         estimate D2E/DX2                !
 ! D51   D(22,11,12,4)         179.7013         estimate D2E/DX2                !
 ! D52   D(22,11,12,21)         -0.301          estimate D2E/DX2                !
 --------------------------------------------------------------------------------
 Trust Radius=3.00D-01 FncErr=1.00D-07 GrdErr=1.00D-07 EigMax=2.50D+02 EigMin=1.00D-04
 Number of steps in this run=    122 maximum allowed number of steps=    132.
 GradGradGradGradGradGradGradGradGradGradGradGradGradGradGradGradGradGrad

                          Input orientation:                          
 ---------------------------------------------------------------------
 Center     Atomic      Atomic             Coordinates (Angstroms)
 Number     Number       Type             X           Y           Z
 ---------------------------------------------------------------------
      1          7           0       34.237000   33.908000   23.164000
      2          6           0       33.630000   32.772000   23.730000
      3          7           0       34.006000   32.166000   24.882000
      4          6           0       35.097000   32.797000   25.472000
      5          6           0       35.773000   33.918000   24.975000
      6          6           0       35.363000   34.533000   23.783000
      7          8           0       35.856000   35.520000   23.257000
      8          6           0       36.822000   34.252000   25.862000
      9          6           0       37.733000   35.412000   25.664000
     10          7           0       38.843000   35.378000   26.629000
     11          6           0       36.777000   33.322000   26.889000
     12          7           0       35.713000   32.416000   26.650000
     13          7           0       32.531000   32.255000   23.057000
     14          1           0       32.228800   32.669400   22.216600
     15          1           0       32.054000   31.474100   23.420200
     16          1           0       33.879100   34.279400   22.325400
     17          1           0       37.180300   36.318400   25.797500
     18          1           0       38.138100   35.363800   24.674800
     19          1           0       38.470500   35.423400   27.577500
     20          1           0       39.458800   36.174900   26.467100
     21          1           0       35.458900   31.654000   27.219300
     22          1           0       37.416300   33.293600   27.698700
 ---------------------------------------------------------------------
                    Distance matrix (angstroms):
                    1          2          3          4          5
     1  N    0.000000
     2  C    1.406876   0.000000
     3  N    2.457529   1.354886   0.000000
     4  C    2.701996   2.277560   1.391597   0.000000
     5  C    2.374683   2.730529   2.490069   1.400224   0.000000
     6  C    1.428867   2.471279   2.941418   2.436631   1.402565
     7  O    2.286559   3.567956   4.160822   3.591244   2.350493
     8  C    3.752301   4.113963   3.638908   2.290142   1.413763
     9  C    4.553464   5.248292   5.003855   3.718008   2.558976
    10  N    5.948307   6.509286   6.063458   4.693903   3.780505
    11  C    4.546495   4.492815   3.611485   2.259627   2.242014
    12  N    4.069009   3.604445   2.470258   1.382860   2.250606
    13  N    2.377876   1.388531   2.348227   3.565157   4.117628
    14  H    2.542551   2.065010   3.242870   4.340562   4.661451
    15  H    3.279481   2.065017   2.534934   3.901256   4.713917
    16  H    0.984520   2.075381   3.319453   3.685360   3.276865
    17  H    4.626917   5.427351   5.306293   4.104430   2.901537
    18  H    4.429498   5.285172   5.229064   4.058606   2.788217
    19  H    6.300630   6.727824   6.148832   4.765670   4.039275
    20  H    6.581527   7.283293   6.951032   5.605866   4.572208
    21  H    4.797813   4.095121   2.799292   2.119075   3.203317
    22  H    5.572158   5.509874   4.564584   3.253299   3.241736
                    6          7          8          9         10
     6  C    0.000000
     7  O    1.222250   0.000000
     8  C    2.555364   3.054015   0.000000
     9  C    3.150826   3.054250   1.488195   0.000000
    10  N    4.574291   4.506963   2.437336   1.471218   0.000000
    11  C    3.621209   4.344061   1.386237   2.604354   2.926276
    12  N    3.581044   4.600838   2.285109   3.745479   4.309383
    13  N    3.706290   4.664317   5.501701   6.619962   7.896433
    14  H    3.968605   4.729158   6.073800   7.050010   8.399609
    15  H    4.520838   5.554381   6.034314   7.265861   8.463294
    16  H    2.095440   2.512986   4.600973   5.223177   6.660946
    17  H    3.247837   2.974114   2.098225   1.069982   2.083342
    18  H    3.030960   2.691196   2.092286   1.070021   2.077494
    19  H    4.984737   5.050907   2.651918   2.050736   1.020034
    20  H    5.164863   4.869682   3.319097   2.050700   1.020035
    21  H    4.483971   5.550087   3.232632   4.659727   5.066435
    22  H    4.591825   5.207695   2.155270   2.954306   2.743074
                   11         12         13         14         15
    11  C    0.000000
    12  N    1.417763   0.000000
    13  N    5.818181   4.802155   0.000000
    14  H    6.553116   5.644369   0.984543   0.000000
    15  H    6.144431   4.970620   0.984504   1.705271   0.000000
    16  H    5.490071   5.053475   2.539844   2.308122   3.521262
    17  H    3.214411   4.255403   6.755557   7.117261   7.442966
    18  H    3.305181   4.297912   6.612222   6.944233   7.329397
    19  H    2.785293   4.184318   8.108720   8.676554   8.605323
    20  H    3.938158   5.309783   8.659608   9.090004   9.285052
    21  H    2.151444   0.984537   5.124309   6.040827   5.104789
    22  H    1.032049   2.184304   6.818374   7.573190   7.097211
                   16         17         18         19         20
    16  H    0.000000
    17  H    5.206815   0.000000
    18  H    4.983441   1.757583   0.000000
    19  H    7.069246   2.373613   2.922278   0.000000
    20  H    7.202753   2.379184   2.369487   1.665676   0.000000
    21  H    5.773972   5.171205   5.235953   4.838018   6.083054
    22  H    6.508144   3.580457   3.735063   2.379512   3.740392
                   21         22
    21  H    0.000000
    22  H    2.597985   0.000000
 Stoichiometry    C7H9N5O
 Framework group  C1[X(C7H9N5O)]
 Deg. of freedom    60
 Full point group                 C1      NOp   1
 Largest Abelian subgroup         C1      NOp   1
 Largest concise Abelian subgroup C1      NOp   1
                         Standard orientation:                         
 ---------------------------------------------------------------------
 Center     Atomic      Atomic             Coordinates (Angstroms)
 Number     Number       Type             X           Y           Z
 ---------------------------------------------------------------------
      1          7           0        1.877300   -1.185656   -0.003322
      2          6           0        2.506039    0.072819   -0.018475
      3          7           0        1.875121    1.271841   -0.015782
      4          6           0        0.490509    1.133308   -0.001604
      5          6           0       -0.220548   -0.072935   -0.002019
      6          6           0        0.453269   -1.303038    0.000820
      7          8           0       -0.049220   -2.417096    0.017348
      8          6           0       -1.605488    0.210645    0.013752
      9          6           0       -2.662471   -0.836441    0.047282
     10          7           0       -3.994105   -0.244263   -0.154099
     11          6           0       -1.722008    1.591975    0.015889
     12          7           0       -0.426700    2.168206    0.002115
     13          7           0        3.894477    0.073427   -0.002468
     14          1           0        4.387119   -0.778996   -0.003902
     15          1           0        4.386246    0.926215    0.010331
     16          1           0        2.429046   -2.001005    0.004569
     17          1           0       -2.637938   -1.328827    0.996921
     18          1           0       -2.476299   -1.535720   -0.740941
     19          1           0       -4.184806    0.425263    0.591447
     20          1           0       -4.699652   -0.980758   -0.138290
     21          1           0       -0.218135    3.130380   -0.003772
     22          1           0       -2.610283    2.117326    0.025871
 ---------------------------------------------------------------------
 Rotational constants (GHZ):           1.6554144           0.5764527           0.4292308
 Standard basis: 6-31G(d) (6D, 7F)
 There are   213 symmetry adapted cartesian basis functions of A   symmetry.
 There are   213 symmetry adapted basis functions of A   symmetry.
   213 basis functions,   400 primitive gaussians,   213 cartesian basis functions
    47 alpha electrons       47 beta electrons
       nuclear repulsion energy       784.2914054115 Hartrees.
 NAtoms=   22 NActive=   22 NUniq=   22 SFac= 1.00D+00 NAtFMM=   60 NAOKFM=F Big=F
 Integral buffers will be    131072 words long.
 Raffenetti 1 integral format.
 Two-electron integral symmetry is turned on.
 One-electron integrals computed using PRISM.
 NBasis=   213 RedAO= T EigKep=  6.06D-04  NBF=   213
 NBsUse=   213 1.00D-06 EigRej= -1.00D+00 NBFU=   213
 ExpMin= 1.61D-01 ExpMax= 5.48D+03 ExpMxC= 8.25D+02 IAcc=3 IRadAn=         5 AccDes= 0.00D+00
 Harris functional with IExCor=  205 and IRadAn=       5 diagonalized for initial guess.
 HarFok:  IExCor=  205 AccDes= 0.00D+00 IRadAn=         5 IDoV= 1 UseB2=F ITyADJ=14
 ICtDFT=  3500011 ScaDFX=  1.000000  1.000000  1.000000  1.000000
 FoFCou: FMM=F IPFlag=           0 FMFlag=      100000 FMFlg1=           0
         NFxFlg=           0 DoJE=T BraDBF=F KetDBF=T FulRan=T
         wScrn=  0.000000 ICntrl=       500 IOpCl=  0 I1Cent=   200000004 NGrid=           0
         NMat0=    1 NMatS0=      1 NMatT0=    0 NMatD0=    1 NMtDS0=    0 NMtDT0=    0
 Petite list used in FoFCou.
 Requested convergence on RMS density matrix=1.00D-08 within 128 cycles.
 Requested convergence on MAX density matrix=1.00D-06.
 Requested convergence on             energy=1.00D-06.
 No special actions if energy rises.
 Integral accuracy reduced to 1.0D-05 until final iterations.
 Initial convergence to 1.0D-05 achieved.  Increase integral accuracy.
 SCF Done:  E(RHF) =  -617.426018031     A.U. after   16 cycles
            NFock= 16  Conv=0.76D-08     -V/T= 2.0027
 SCF density gives NOpUse=  1 NOpAll=  1.

 **********************************************************************

            Population analysis using the SCF Density.

 **********************************************************************

 Orbital symmetries:
 BldTbl:  Degeneracy threshold= 1.00D-02
       Occupied  (A) (A) (A) (A) (A) (A) (A) (A) (A) (A) (A) (A)
                 (A) (A) (A) (A) (A) (A) (A) (A) (A) (A) (A) (A)
                 (A) (A) (A) (A) (A) (A) (A) (A) (A) (A) (A) (A)
                 (A) (A) (A) (A) (A) (A) (A) (A) (A) (A) (A)
       Virtual   (A) (A) (A) (A) (A) (A) (A) (A) (A) (A) (A) (A)
                 (A) (A) (A) (A) (A) (A) (A) (A) (A) (A) (A) (A)
                 (A) (A) (A) (A) (A) (A) (A) (A) (A) (A) (A) (A)
                 (A) (A) (A) (A) (A) (A) (A) (A) (A) (A) (A) (A)
                 (A) (A) (A) (A) (A) (A) (A) (A) (A) (A) (A) (A)
                 (A) (A) (A) (A) (A) (A) (A) (A) (A) (A) (A) (A)
                 (A) (A) (A) (A) (A) (A) (A) (A) (A) (A) (A) (A)
                 (A) (A) (A) (A) (A) (A) (A) (A) (A) (A) (A) (A)
                 (A) (A) (A) (A) (A) (A) (A) (A) (A) (A) (A) (A)
                 (A) (A) (A) (A) (A) (A) (A) (A) (A) (A) (A) (A)
                 (A) (A) (A) (A) (A) (A) (A) (A) (A) (A) (A) (A)
                 (A) (A) (A) (A) (A) (A) (A) (A) (A) (A) (A) (A)
                 (A) (A) (A) (A) (A) (A) (A) (A) (A) (A) (A) (A)
                 (A) (A) (A) (A) (A) (A) (A) (A) (A) (A)
 The electronic state is 1-A.
 Alpha  occ. eigenvalues --  -20.51517 -15.62984 -15.61113 -15.60960 -15.56343
 Alpha  occ. eigenvalues --  -15.52912 -11.40390 -11.35494 -11.31699 -11.24544
 Alpha  occ. eigenvalues --  -11.23205 -11.22057 -11.20269  -1.37894  -1.32341
 Alpha  occ. eigenvalues --   -1.28560  -1.21247  -1.18003  -1.16343  -1.07011
 Alpha  occ. eigenvalues --   -0.98616  -0.90153  -0.88357  -0.87093  -0.78431
 Alpha  occ. eigenvalues --   -0.76540  -0.72479  -0.71625  -0.70291  -0.66250
 Alpha  occ. eigenvalues --   -0.64522  -0.63068  -0.60815  -0.59649  -0.59390
 Alpha  occ. eigenvalues --   -0.57442  -0.55363  -0.53464  -0.52471  -0.51398
 Alpha  occ. eigenvalues --   -0.44270  -0.43027  -0.42144  -0.40798  -0.37889
 Alpha  occ. eigenvalues --   -0.34547  -0.26417
 Alpha virt. eigenvalues --    0.14790   0.16785   0.19169   0.22534   0.23630
 Alpha virt. eigenvalues --    0.24225   0.25006   0.28241   0.29527   0.32518
 Alpha virt. eigenvalues --    0.34012   0.35324   0.37979   0.40059   0.40320
 Alpha virt. eigenvalues --    0.41066   0.42850   0.44705   0.45912   0.51775
 Alpha virt. eigenvalues --    0.53404   0.54084   0.57073   0.60188   0.61561
 Alpha virt. eigenvalues --    0.66644   0.72314   0.72641   0.73625   0.76568
 Alpha virt. eigenvalues --    0.77118   0.78521   0.79226   0.81632   0.82791
 Alpha virt. eigenvalues --    0.84382   0.84642   0.85520   0.86707   0.89056
 Alpha virt. eigenvalues --    0.91861   0.92549   0.94176   0.97039   0.97484
 Alpha virt. eigenvalues --    1.00461   1.02092   1.02365   1.03650   1.04140
 Alpha virt. eigenvalues --    1.05138   1.06723   1.11609   1.12060   1.13668
 Alpha virt. eigenvalues --    1.15149   1.16750   1.17784   1.18122   1.18403
 Alpha virt. eigenvalues --    1.19645   1.20306   1.21604   1.23374   1.24655
 Alpha virt. eigenvalues --    1.25881   1.27651   1.27972   1.32014   1.34548
 Alpha virt. eigenvalues --    1.37314   1.38246   1.41982   1.45196   1.45718
 Alpha virt. eigenvalues --    1.46869   1.53115   1.54667   1.56223   1.56627
 Alpha virt. eigenvalues --    1.59149   1.60882   1.62457   1.66157   1.67042
 Alpha virt. eigenvalues --    1.68360   1.69030   1.69455   1.73840   1.78249
 Alpha virt. eigenvalues --    1.82768   1.84940   1.88706   1.91182   1.94610
 Alpha virt. eigenvalues --    1.96806   2.00217   2.04517   2.05982   2.09981
 Alpha virt. eigenvalues --    2.11884   2.12559   2.14614   2.17090   2.20713
 Alpha virt. eigenvalues --    2.21222   2.25047   2.27058   2.29030   2.29269
 Alpha virt. eigenvalues --    2.31741   2.32777   2.36604   2.40354   2.41931
 Alpha virt. eigenvalues --    2.45060   2.46107   2.48978   2.50089   2.52310
 Alpha virt. eigenvalues --    2.54164   2.57472   2.61845   2.62550   2.65367
 Alpha virt. eigenvalues --    2.67945   2.69648   2.71339   2.73802   2.77088
 Alpha virt. eigenvalues --    2.79749   2.81477   2.83715   2.84818   2.86435
 Alpha virt. eigenvalues --    2.89402   2.95771   2.96920   3.00418   3.02113
 Alpha virt. eigenvalues --    3.06700   3.08394   3.08516   3.10299   3.19446
 Alpha virt. eigenvalues --    3.23633   3.31064   3.36834   3.38964   3.42714
 Alpha virt. eigenvalues --    3.55610   3.72488   3.82400   4.21083   4.22959
 Alpha virt. eigenvalues --    4.38454   4.45312   4.56148   4.57671   4.68590
 Alpha virt. eigenvalues --    4.72723   4.77925   4.80734   4.92481   5.07348
 Alpha virt. eigenvalues --    5.27145
          Condensed to atoms (all electrons):
               1          2          3          4          5          6
     1  N    7.457681   0.299511  -0.068725  -0.011747  -0.125307   0.245699
     2  C    0.299511   4.002477   0.567791  -0.069662  -0.003317  -0.035721
     3  N   -0.068725   0.567791   7.026293   0.398267  -0.071676  -0.013011
     4  C   -0.011747  -0.069662   0.398267   4.374989   0.503295  -0.036503
     5  C   -0.125307  -0.003317  -0.071676   0.503295   5.406742   0.358501
     6  C    0.245699  -0.035721  -0.013011  -0.036503   0.358501   4.045935
     7  O   -0.091634   0.001476   0.000028   0.002751  -0.091756   0.630189
     8  C    0.000758   0.001301   0.006910  -0.053222   0.483480  -0.050036
     9  C    0.000050  -0.000004  -0.000061   0.003782  -0.045550  -0.004577
    10  N    0.000001  -0.000000   0.000000   0.000021   0.001780   0.000099
    11  C   -0.000179  -0.000062   0.001844  -0.123202  -0.056228   0.007370
    12  N    0.000170   0.001008  -0.051969   0.361764  -0.095806   0.001877
    13  N   -0.079977   0.354587  -0.080089   0.001470  -0.000138   0.000604
    14  H   -0.000212  -0.023738   0.002530  -0.000050  -0.000017   0.000007
    15  H    0.003274  -0.013889   0.004134   0.000034   0.000053  -0.000006
    16  H    0.305680  -0.016097   0.001993  -0.000392   0.006325  -0.004989
    17  H    0.000005  -0.000001   0.000000  -0.000235  -0.003764   0.001038
    18  H    0.000019  -0.000003  -0.000000  -0.000006  -0.005335   0.001339
    19  H   -0.000000   0.000000   0.000000   0.000013  -0.000275  -0.000011
    20  H   -0.000000   0.000000  -0.000000  -0.000000  -0.000041   0.000003
    21  H    0.000015  -0.000044   0.000978  -0.018177   0.005269   0.000019
    22  H    0.000001   0.000002  -0.000033   0.003886   0.002626  -0.000099
               7          8          9         10         11         12
     1  N   -0.091634   0.000758   0.000050   0.000001  -0.000179   0.000170
     2  C    0.001476   0.001301  -0.000004  -0.000000  -0.000062   0.001008
     3  N    0.000028   0.006910  -0.000061   0.000000   0.001844  -0.051969
     4  C    0.002751  -0.053222   0.003782   0.000021  -0.123202   0.361764
     5  C   -0.091756   0.483480  -0.045550   0.001780  -0.056228  -0.095806
     6  C    0.630189  -0.050036  -0.004577   0.000099   0.007370   0.001877
     7  O    8.194270  -0.009409   0.001831   0.000131   0.000183  -0.000041
     8  C   -0.009409   4.842652   0.339573  -0.058454   0.654119  -0.049523
     9  C    0.001831   0.339573   4.845680   0.254030  -0.039926   0.003042
    10  N    0.000131  -0.058454   0.254030   7.111379  -0.004564   0.000026
    11  C    0.000183   0.654119  -0.039926  -0.004564   4.904509   0.271376
    12  N   -0.000041  -0.049523   0.003042   0.000026   0.271376   7.107188
    13  N   -0.000035   0.000001   0.000000   0.000000   0.000000  -0.000050
    14  H   -0.000004  -0.000000   0.000000  -0.000000  -0.000000   0.000001
    15  H    0.000001  -0.000000   0.000000  -0.000000   0.000000  -0.000008
    16  H    0.006241   0.000019  -0.000003  -0.000000   0.000001   0.000008
    17  H    0.000657  -0.055409   0.418902  -0.057266   0.000247   0.000052
    18  H    0.003093  -0.036591   0.406005  -0.038366   0.001065  -0.000027
    19  H   -0.000002  -0.004702  -0.030795   0.318037   0.002213  -0.000081
    20  H    0.000000   0.007058  -0.038838   0.333359   0.000027   0.000000
    21  H    0.000001   0.001436  -0.000050  -0.000001  -0.015648   0.328305
    22  H    0.000001  -0.023842  -0.000736   0.003382   0.389110  -0.034962
              13         14         15         16         17         18
     1  N   -0.079977  -0.000212   0.003274   0.305680   0.000005   0.000019
     2  C    0.354587  -0.023738  -0.013889  -0.016097  -0.000001  -0.000003
     3  N   -0.080089   0.002530   0.004134   0.001993   0.000000  -0.000000
     4  C    0.001470  -0.000050   0.000034  -0.000392  -0.000235  -0.000006
     5  C   -0.000138  -0.000017   0.000053   0.006325  -0.003764  -0.005335
     6  C    0.000604   0.000007  -0.000006  -0.004989   0.001038   0.001339
     7  O   -0.000035  -0.000004   0.000001   0.006241   0.000657   0.003093
     8  C    0.000001  -0.000000  -0.000000   0.000019  -0.055409  -0.036591
     9  C    0.000000   0.000000   0.000000  -0.000003   0.418902   0.406005
    10  N    0.000000  -0.000000  -0.000000  -0.000000  -0.057266  -0.038366
    11  C    0.000000  -0.000000   0.000000   0.000001   0.000247   0.001065
    12  N   -0.000050   0.000001  -0.000008   0.000008   0.000052  -0.000027
    13  N    7.092050   0.330987   0.321656  -0.000942   0.000000   0.000000
    14  H    0.330987   0.307041  -0.012745   0.002311  -0.000000   0.000000
    15  H    0.321656  -0.012745   0.277718  -0.000051  -0.000000  -0.000000
    16  H   -0.000942   0.002311  -0.000051   0.292753   0.000000   0.000000
    17  H    0.000000  -0.000000  -0.000000   0.000000   0.566357  -0.033589
    18  H    0.000000   0.000000  -0.000000   0.000000  -0.033589   0.497480
    19  H   -0.000000  -0.000000   0.000000   0.000000  -0.004095   0.004959
    20  H    0.000000   0.000000   0.000000   0.000000  -0.001826  -0.003136
    21  H   -0.000004   0.000000   0.000002  -0.000000   0.000002   0.000002
    22  H   -0.000000   0.000000  -0.000000  -0.000000   0.000173  -0.000099
              19         20         21         22
     1  N   -0.000000  -0.000000   0.000015   0.000001
     2  C    0.000000   0.000000  -0.000044   0.000002
     3  N    0.000000  -0.000000   0.000978  -0.000033
     4  C    0.000013  -0.000000  -0.018177   0.003886
     5  C   -0.000275  -0.000041   0.005269   0.002626
     6  C   -0.000011   0.000003   0.000019  -0.000099
     7  O   -0.000002   0.000000   0.000001   0.000001
     8  C   -0.004702   0.007058   0.001436  -0.023842
     9  C   -0.030795  -0.038838  -0.000050  -0.000736
    10  N    0.318037   0.333359  -0.000001   0.003382
    11  C    0.002213   0.000027  -0.015648   0.389110
    12  N   -0.000081   0.000000   0.328305  -0.034962
    13  N   -0.000000   0.000000  -0.000004  -0.000000
    14  H   -0.000000   0.000000   0.000000   0.000000
    15  H    0.000000   0.000000   0.000002  -0.000000
    16  H    0.000000   0.000000  -0.000000  -0.000000
    17  H   -0.004095  -0.001826   0.000002   0.000173
    18  H    0.004959  -0.003136   0.000002  -0.000099
    19  H    0.415764  -0.024168   0.000001  -0.000872
    20  H   -0.024168   0.388935  -0.000000  -0.000041
    21  H    0.000001  -0.000000   0.297725  -0.000566
    22  H   -0.000872  -0.000041  -0.000566   0.443977
 Mulliken charges:
               1
     1  N   -0.935081
     2  C    0.934388
     3  N   -0.725204
     4  C    0.662926
     5  C   -0.268859
     6  C    0.852273
     7  O   -0.647969
     8  C    0.003883
     9  C   -0.112353
    10  N   -0.863593
    11  C    0.007746
    12  N   -0.842350
    13  N   -0.940120
    14  H    0.393890
    15  H    0.419827
    16  H    0.407142
    17  H    0.168753
    18  H    0.203191
    19  H    0.324015
    20  H    0.338669
    21  H    0.400736
    22  H    0.218092
 Sum of Mulliken charges =  -0.00000
 Mulliken charges with hydrogens summed into heavy atoms:
               1
     1  N   -0.527939
     2  C    0.934388
     3  N   -0.725204
     4  C    0.662926
     5  C   -0.268859
     6  C    0.852273
     7  O   -0.647969
     8  C    0.003883
     9  C    0.259590
    10  N   -0.200910
    11  C    0.225838
    12  N   -0.441613
    13  N   -0.126403
 DipInt: DoE/N= T F RetVal/Mat= T F Init=T NMatP=  1 IDeriv=0 Min/MaxMlt=  0  4
 Entering OneElI...
 OneElI was handed   104738689 working-precision words.
 Multipole integrals L=0 to 4 MinM= 0 MaxM= 0.
 Requested accuracy = 0.1000D-12
 ShPair: Thresh= 1.00D-13 NBox=     0 BxSize= 0.00D+00 RnKept= 1.75D+01
         NSMCal=                 2485 NSMKep=                2176
 PrmmSu-InSpLW:  IPartL=    0 NPrtUS=    1 NPrtUL=    1 DoSpLW=F IThBeg=    0 IThEnd=    0 NThAct=    1.
 PrSmSu:  IncTry=   512 NBBP=           2176 NTPThr=   100 NPartT=    1 Incr=          21 LDynOK=F GPUOK=F.
 PrsmSu:  NPrtUS=   1 ThrOK=F IAlg=2 LenDen=           0 ISkipM=0 DoSpLW=F IThBeg=    0 IThEnd=    0.
 Prism:   IPart=     0 DynPar=F LinDyn=F Incr=          21.
 PRISM was handed   104536434 working-precision words and  2176 shell-pairs
 IPart=  0 NShTot=        2176 NBatch=          47 AvBLen=        46.3
 PrsmSu-ThDecC:  IPartSL=    0    0 NPrtUSL=    1    1 IThBeg=    0 IThEnd=    0 CPU=   -1 GPU=   -1 NThAct=    1.
 PrSmSu:  NxtVal=             22.
 Electronic moments (au):
        -94.00000000          1.64387501          0.66500289          0.50626370
      -1782.12820336       -640.16385463        -66.44980949         -5.29043507
         -4.28045234          0.83728468        525.15612052         43.77817897
         -3.01463460        144.89690663        239.64587972         76.36705344
         43.83883264          5.03076714         -8.63123224          8.85190659
     -79648.68891633     -10564.78554716       -243.02468338      -3188.82483460
       -563.65311070        924.17023828         20.91669493         12.98856080
          9.21118841      -4963.54712814      -1406.60597604       -448.59578041
        -62.06385625         22.65208136        -58.52968444
 Electronic spatial extent (au):  <R**2>=           2488.7419
 DipInt: DoE/N= F T RetVal/Mat= T F Init=T NMatP=  1 IDeriv=0 Min/MaxMlt=  0  4
 Nuclear    moments (au):
         94.00000000         -0.00000000         -0.00000000         -0.00000000
       1745.50801402        585.33822415          7.50383286          0.00000000
          0.00000000          0.00000000       -397.97100414         19.35219393
          5.15114690       -141.31648419       -291.76866361        -41.20100670
        -42.05289238        -14.06947028          7.65468686        -13.98799407
      75229.35592001       8563.61094103         18.05560078       3238.52089149
        293.40929568      -1068.26845032        -14.83930999        -30.08790753
         -7.59612061       3844.87107093        250.10311955         40.48977229
        105.47853541        -19.43685805         66.64337532
 Total      moments (au):
         -0.00000000          1.64387501          0.66500289          0.50626370
        -36.62018935        -54.82563048        -58.94597663         -5.29043507
         -4.28045234          0.83728468        127.18511638         63.13037290
          2.13651230          3.58042244        -52.12278389         35.16604674
          1.78594026         -9.03870314         -0.97654538         -5.13608748
      -4419.33299632      -2001.17460612       -224.96908259         49.69605690
       -270.24381503       -144.09821205          6.07738494        -17.09934672
          1.61506780      -1118.67605721      -1156.50285649       -408.10600812
         43.41467916          3.21522331          8.11369088
 Traceless Quadrup. (au):
         13.51040947         -4.69503166         -8.81537781         -5.29043507
         -4.28045234          0.83728468
 Charge=             -0.0000 electrons
 Dipole moment (field-independent basis, Debye):
    X=              4.1783    Y=              1.6903    Z=              1.2868  Tot=              4.6873
 Quadrupole moment (field-independent basis, Debye-Ang):
   XX=            -49.2554   YY=            -73.7424   ZZ=            -79.2844
   XY=             -7.1158   XZ=             -5.7574   YZ=              1.1262
 Traceless Quadrupole moment (field-independent basis, Debye-Ang):
   XX=             18.1720   YY=             -6.3150   ZZ=            -11.8570
   XY=             -7.1158   XZ=             -5.7574   YZ=              1.1262
 Octapole moment (field-independent basis, Debye-Ang**2):
  XXX=             90.5255  YYY=             44.9338  ZZZ=              1.5207  XYY=              2.5484
  XXY=            -37.0990  XXZ=             25.0298  XZZ=              1.2712  YZZ=             -6.4334
  YYZ=             -0.6951  XYZ=             -3.6557
 Hexadecapole moment (field-independent basis, Debye-Ang**3):
 XXXX=          -1664.5327 YYYY=           -753.7383 ZZZZ=            -84.7341 XXXY=             18.7179
 XXXZ=           -101.7868 YYYX=            -54.2743 YYYZ=              2.2890 ZZZX=             -6.4404
 ZZZY=              0.6083 XXYY=           -421.3470 XXZZ=           -435.5944 YYZZ=           -153.7123
 XXYZ=             16.3520 YYXZ=              1.2110 ZZXY=              3.0560
 N-N= 7.842914054115D+02 E-N=-3.014181202961D+03  KE= 6.157742407407D+02
 Entering OneElI...
 OneElI was handed   104760695 working-precision words.
 Calculate electrostatic properties
    NBasis =   213  MinDer = 0  MaxDer = 0
    NGrid  =    22  NMatD  =   1
 Requested accuracy = 0.1000D-12
 PrtBox:  NBox=     1 Levels=  1 BoxLen=   29.89 SMaxX=       17.17
          Shift=            8.881055            4.567649            1.400176
 Box      1 Number                   0 centers from      1 to     70:
 ShPair: Thresh= 1.00D-13 NBox=     1 BxSize= 2.99D+01 RnKept= 1.72D+01
         NSMCal=                 2485 NSMKep=                2016
 PrmmSu-InSpLW:  IPartL=    0 NPrtUS=    8 NPrtUL=    1 DoSpLW=F IThBeg=    0 IThEnd=    7 NThAct=    8.
 PrSmSu:  IncTry=   512 NBBP=          44352 NTPThr=   100 NPartT=    8 Incr=          55 LDynOK=F GPUOK=F.
 PrsmSu:  NPrtUS=   8 ThrOK=T IAlg=2 LenDen=           0 ISkipM=0 DoSpLW=F IThBeg=    0 IThEnd=    7.
 Prism:   IPart=     0 DynPar=F LinDyn=F Incr=          55.
 PRISM was handed    13012882 working-precision words and  2016 shell-pairs
 PRISM was handed    13012882 working-precision words and  2016 shell-pairs
 PRISM was handed    13012882 working-precision words and  2016 shell-pairs
 PRISM was handed    13012882 working-precision words and  2016 shell-pairs
 PRISM was handed    13012882 working-precision words and  2016 shell-pairs
 PRISM was handed    13012882 working-precision words and  2016 shell-pairs
 PRISM was handed    13012882 working-precision words and  2016 shell-pairs
 PRISM was handed    13012882 working-precision words and  2016 shell-pairs
 IPart=  0 NShTot=        6028 NBatch=         274 AvBLen=        22.0
 PrsmSu-ThDecC:  IPartSL=    0    0 NPrtUSL=    8    1 IThBeg=    0 IThEnd=    7 CPU=   -1 GPU=   -1 NThAct=    8.
 IPart=  6 NShTot=        5236 NBatch=         238 AvBLen=        22.0
 IPart=  5 NShTot=        5324 NBatch=         242 AvBLen=        22.0
 PrsmSu-ThDecC:  IPartSL=    6    0 NPrtUSL=    8    1 IThBeg=    0 IThEnd=    7 CPU=   -1 GPU=   -1 NThAct=    7.
 IPart=  3 NShTot=        5588 NBatch=         254 AvBLen=        22.0
 PrsmSu-ThDecC:  IPartSL=    5    0 NPrtUSL=    8    1 IThBeg=    0 IThEnd=    7 CPU=   -1 GPU=   -1 NThAct=    6.
 PrsmSu-ThDecC:  IPartSL=    3    0 NPrtUSL=    8    1 IThBeg=    0 IThEnd=    7 CPU=   -1 GPU=   -1 NThAct=    5.
 IPart=  4 NShTot=        5434 NBatch=         247 AvBLen=        22.0
 PrsmSu-ThDecC:  IPartSL=    4    0 NPrtUSL=    8    1 IThBeg=    0 IThEnd=    7 CPU=   -1 GPU=   -1 NThAct=    4.
 IPart=  2 NShTot=        5698 NBatch=         259 AvBLen=        22.0
 PrsmSu-ThDecC:  IPartSL=    2    0 NPrtUSL=    8    1 IThBeg=    0 IThEnd=    7 CPU=   -1 GPU=   -1 NThAct=    3.
 IPart=  1 NShTot=        5874 NBatch=         267 AvBLen=        22.0
 PrsmSu-ThDecC:  IPartSL=    1    0 NPrtUSL=    8    1 IThBeg=    0 IThEnd=    7 CPU=   -1 GPU=   -1 NThAct=    2.
 IPart=  7 NShTot=        5170 NBatch=         235 AvBLen=        22.0
 PrsmSu-ThDecC:  IPartSL=    7    0 NPrtUSL=    8    1 IThBeg=    0 IThEnd=    7 CPU=   -1 GPU=   -1 NThAct=    1.
 PrSmSu:  NxtVal=            441.
 --------------------------------------------------------
       Center         ----      EFG at Nuclei      ----
                      3XX-RR        3YY-RR        3ZZ-RR
 --------------------------------------------------------
     1   Atom       -0.369512     -0.537153      0.906665
     2   Atom        0.185388      0.241711     -0.427099
     3   Atom       -0.333447      0.219514      0.113934
     4   Atom        0.123992      0.198270     -0.322262
     5   Atom        0.026544     -0.045455      0.018911
     6   Atom       -0.000889      0.484938     -0.484048
     7   Atom        1.089498     -0.552415     -0.537083
     8   Atom        0.120429      0.152933     -0.273363
     9   Atom       -0.192131      0.043604      0.148527
    10   Atom       -0.577108     -0.180717      0.757825
    11   Atom       -0.108423      0.145682     -0.037259
    12   Atom       -0.399045     -0.385355      0.784400
    13   Atom       -0.674851     -0.446814      1.121665
    14   Atom        0.023429     -0.310694      0.287265
    15   Atom        0.023740     -0.303501      0.279761
    16   Atom       -0.020753     -0.254614      0.275366
    17   Atom        0.160034      0.064082     -0.224116
    18   Atom        0.142598     -0.045142     -0.097455
    19   Atom        0.140287     -0.043293     -0.096994
    20   Atom       -0.099778     -0.116653      0.216431
    21   Atom        0.173309     -0.443350      0.270041
    22   Atom       -0.256640      0.023352      0.233288
 --------------------------------------------------------
                        XY            XZ            YZ
 --------------------------------------------------------
     1   Atom       -0.064113      0.006779      0.024367
     2   Atom       -0.126390      0.002769     -0.002456
     3   Atom        0.595282      0.011701     -0.011798
     4   Atom        0.149500     -0.004439     -0.000745
     5   Atom       -0.000182      0.000623     -0.004100
     6   Atom       -0.060910     -0.002180     -0.008339
     7   Atom       -1.006538     -0.000467      0.013542
     8   Atom        0.014465      0.003405     -0.006136
     9   Atom        0.057337     -0.038470      0.031899
    10   Atom       -0.000682      0.038340     -0.692179
    11   Atom       -0.195060      0.006905      0.000909
    12   Atom        0.045326      0.007484      0.007667
    13   Atom        0.015364     -0.030589     -0.013699
    14   Atom        0.286479     -0.000785     -0.001594
    15   Atom       -0.291104     -0.005524     -0.008030
    16   Atom        0.311546     -0.002749      0.005360
    17   Atom        0.003500     -0.011408      0.210116
    18   Atom        0.049950      0.061611     -0.244544
    19   Atom        0.064044      0.080039     -0.291863
    20   Atom       -0.276229      0.019723     -0.008662
    21   Atom       -0.139093      0.001381      0.004107
    22   Atom        0.272569      0.009031     -0.001042
 --------------------------------------------------------


 ---------------------------------------------------------------------------------
              Nuclear Quadrupole Coupling Constant in Principal Axis System
 ---------------------------------------------------------------------------------

       Atom             a.u.   MegaHertz   Gauss  10(-4) cm-1        Axes

              Baa    -0.5593     2.686     0.958     0.896  0.3206  0.9471 -0.0172
     1 N(14)  Bbb    -0.3478     1.670     0.596     0.557  0.9472 -0.3206  0.0011
              Bcc     0.9071    -4.357    -1.555    -1.453  0.0045  0.0167  0.9999
 
              Baa    -0.7136     3.427     1.223     1.143  0.8428 -0.5379 -0.0196
     3 N(14)  Bbb     0.1142    -0.549    -0.196    -0.183  0.0206 -0.0042  0.9998
              Bcc     0.5994    -2.879    -1.027    -0.960  0.5378  0.8430 -0.0075
 
              Baa    -0.5857     2.813     1.004     0.938  0.9095 -0.3584 -0.2106
    10 N(14)  Bbb    -0.5398     2.592     0.925     0.865  0.4152  0.8077  0.4186
              Bcc     1.1255    -5.405    -1.929    -1.803  0.0201 -0.4681  0.8834
 
              Baa    -0.4380     2.104     0.751     0.702  0.7581 -0.6521 -0.0006
    12 N(14)  Bbb    -0.3465     1.664     0.594     0.555  0.6521  0.7581 -0.0095
              Bcc     0.7845    -3.768    -1.344    -1.257  0.0066  0.0068  1.0000
 
              Baa    -0.6764     3.248     1.159     1.084  0.9977 -0.0658  0.0165
    13 N(14)  Bbb    -0.4459     2.142     0.764     0.714  0.0656  0.9978  0.0100
              Bcc     1.1223    -5.390    -1.923    -1.798 -0.0171 -0.0089  0.9998
 

 ---------------------------------------------------------------------------------

 No NMR shielding tensors so no spin-rotation constants.
 Leave Link  601 at Tue Oct 28 03:31:11 2025, MaxMem=   104857600 cpu:               0.7 elap:               0.1
 FitSet:  NAtFit=    22 NAtPot=    22 NAtFrz=     0 MDM=    26 TotChg=   0.00000
 Merz-Kollman atomic radii used.
 Atom Element Radius
    1     7    1.50
    2     6    1.50
    3     7    1.50
    4     6    1.50
    5     6    1.50
    6     6    1.50
    7     8    1.40
    8     6    1.50
    9     6    1.50
   10     7    1.50
   11     6    1.50
   12     7    1.50
   13     7    1.50
   14     1    1.20
   15     1    1.20
   16     1    1.20
   17     1    1.20
   18     1    1.20
   19     1    1.20
   20     1    1.20
   21     1    1.20
   22     1    1.20
 Generate VDW surfaces: Layer= 4 Dens= 6 Start= 1.400 Inc= 0.200

 **********************************************************************

            Electrostatic Properties Using The SCF Density.

 **********************************************************************

       Atomic Center    1 is at   1.877300 -1.185656 -0.003322
       Atomic Center    2 is at   2.506039  0.072819 -0.018475
       Atomic Center    3 is at   1.875121  1.271841 -0.015782
       Atomic Center    4 is at   0.490509  1.133308 -0.001604
       Atomic Center    5 is at  -0.220548 -0.072935 -0.002019
       Atomic Center    6 is at   0.453269 -1.303038  0.000820
       Atomic Center    7 is at  -0.049220 -2.417096  0.017348
       Atomic Center    8 is at  -1.605488  0.210645  0.013752
       Atomic Center    9 is at  -2.662471 -0.836441  0.047282
       Atomic Center   10 is at  -3.994105 -0.244263 -0.154099
       Atomic Center   11 is at  -1.722008  1.591975  0.015889
       Atomic Center   12 is at  -0.426700  2.168206  0.002115
       Atomic Center   13 is at   3.894477  0.073427 -0.002468
       Atomic Center   14 is at   4.387119 -0.778996 -0.003902
       Atomic Center   15 is at   4.386246  0.926215  0.010331
       Atomic Center   16 is at   2.429046 -2.001005  0.004569
       Atomic Center   17 is at  -2.637938 -1.328827  0.996921
       Atomic Center   18 is at  -2.476299 -1.535720 -0.740941
       Atomic Center   19 is at  -4.184806  0.425263  0.591447
       Atomic Center   20 is at  -4.699652 -0.980758 -0.138290
       Atomic Center   21 is at  -0.218135  3.130380 -0.003772
       Atomic Center   22 is at  -2.610283  2.117326  0.025871
      ESP Fit Center   23 is at   1.877300 -1.185656  2.096678
      ESP Fit Center   24 is at   2.286990 -1.185656  2.056327
      ESP Fit Center   25 is at   2.082145 -0.830854  2.056327
      ESP Fit Center   26 is at   1.672456 -0.830854  2.056327
      ESP Fit Center   27 is at   1.467611 -1.185656  2.056327
      ESP Fit Center   28 is at   1.672456 -1.540457  2.056327
      ESP Fit Center   29 is at   2.082145 -1.540457  2.056327
      ESP Fit Center   30 is at   2.680936 -1.185656  1.936825
      ESP Fit Center   31 is at   2.573269 -0.783838  1.936825
      ESP Fit Center   32 is at   1.877300 -0.382021  1.936825
      ESP Fit Center   33 is at   1.475483 -0.489687  1.936825
      ESP Fit Center   34 is at   1.181332 -0.783838  1.936825
      ESP Fit Center   35 is at   1.475483 -1.881624  1.936825
      ESP Fit Center   36 is at   1.877300 -1.989291  1.936825
      ESP Fit Center   37 is at   2.279118 -1.881624  1.936825
      ESP Fit Center   38 is at   2.573269 -1.587473  1.936825
      ESP Fit Center   39 is at   3.043998 -1.185656  1.742764
      ESP Fit Center   40 is at   1.174208 -0.254611  1.742764
      ESP Fit Center   41 is at   1.558018 -2.307815  1.742764
      ESP Fit Center   42 is at   1.984950 -2.347376  1.742764
      ESP Fit Center   43 is at   2.397342 -2.230041  1.742764
      ESP Fit Center   44 is at   2.739500 -1.971655  1.742764
      ESP Fit Center   45 is at   2.965213 -1.607116  1.742764
      ESP Fit Center   46 is at   1.665974 -2.655466  1.481602
      ESP Fit Center   47 is at   3.302075 -1.604007  1.481602
      ESP Fit Center   48 is at   1.665974 -2.655466 -1.488246
      ESP Fit Center   49 is at   3.302075 -1.604007 -1.488246
      ESP Fit Center   50 is at   3.043998 -1.185656 -1.749408
      ESP Fit Center   51 is at   1.174208 -0.254611 -1.749408
      ESP Fit Center   52 is at   1.558018 -2.307815 -1.749408
      ESP Fit Center   53 is at   1.984950 -2.347376 -1.749408
      ESP Fit Center   54 is at   2.397342 -2.230041 -1.749408
      ESP Fit Center   55 is at   2.739500 -1.971655 -1.749408
      ESP Fit Center   56 is at   2.965213 -1.607116 -1.749408
      ESP Fit Center   57 is at   2.680936 -1.185656 -1.943469
      ESP Fit Center   58 is at   2.573269 -0.783838 -1.943469
      ESP Fit Center   59 is at   1.475483 -0.489687 -1.943469
      ESP Fit Center   60 is at   1.181332 -0.783838 -1.943469
      ESP Fit Center   61 is at   1.475483 -1.881624 -1.943469
      ESP Fit Center   62 is at   1.877300 -1.989291 -1.943469
      ESP Fit Center   63 is at   2.279118 -1.881624 -1.943469
      ESP Fit Center   64 is at   2.573269 -1.587473 -1.943469
      ESP Fit Center   65 is at   2.286990 -1.185656 -2.062971
      ESP Fit Center   66 is at   2.082145 -0.830854 -2.062971
      ESP Fit Center   67 is at   1.672456 -0.830854 -2.062971
      ESP Fit Center   68 is at   1.467611 -1.185656 -2.062971
      ESP Fit Center   69 is at   1.672456 -1.540457 -2.062971
      ESP Fit Center   70 is at   2.082145 -1.540457 -2.062971
      ESP Fit Center   71 is at   1.877300 -1.185656 -2.103322
      ESP Fit Center   72 is at   2.506039  0.072819  2.081525
      ESP Fit Center   73 is at   2.915728  0.072819  2.041174
      ESP Fit Center   74 is at   2.710883  0.427621  2.041174
      ESP Fit Center   75 is at   2.301194  0.427621  2.041174
      ESP Fit Center   76 is at   2.096349  0.072819  2.041174
      ESP Fit Center   77 is at   2.301194 -0.281982  2.041174
      ESP Fit Center   78 is at   2.710883 -0.281982  2.041174
      ESP Fit Center   79 is at   2.907856  0.768788  1.921672
      ESP Fit Center   80 is at   1.702403  0.072819  1.921672
      ESP Fit Center   81 is at   1.810070 -0.328998  1.921672
      ESP Fit Center   82 is at   2.907856 -0.623149  1.921672
      ESP Fit Center   83 is at   1.359206 -0.141561 -1.764561
      ESP Fit Center   84 is at   3.026080 -0.971565 -1.764561
      ESP Fit Center   85 is at   3.202007  0.474637 -1.958622
      ESP Fit Center   86 is at   2.907856  0.768788 -1.958622
      ESP Fit Center   87 is at   1.810070  0.474637 -1.958622
      ESP Fit Center   88 is at   1.702403  0.072819 -1.958622
      ESP Fit Center   89 is at   1.810070 -0.328998 -1.958622
      ESP Fit Center   90 is at   2.506039 -0.730816 -1.958622
      ESP Fit Center   91 is at   2.907856 -0.623149 -1.958622
      ESP Fit Center   92 is at   3.202007 -0.328998 -1.958622
      ESP Fit Center   93 is at   2.915728  0.072819 -2.078124
      ESP Fit Center   94 is at   2.710883  0.427621 -2.078124
      ESP Fit Center   95 is at   2.301194  0.427621 -2.078124
      ESP Fit Center   96 is at   2.096349  0.072819 -2.078124
      ESP Fit Center   97 is at   2.301194 -0.281982 -2.078124
      ESP Fit Center   98 is at   2.710883 -0.281982 -2.078124
      ESP Fit Center   99 is at   2.506039  0.072819 -2.118475
      ESP Fit Center  100 is at   1.875121  1.271841  2.084218
      ESP Fit Center  101 is at   2.284811  1.271841  2.043867
      ESP Fit Center  102 is at   2.079966  1.626642  2.043867
      ESP Fit Center  103 is at   1.670276  1.626642  2.043867
      ESP Fit Center  104 is at   1.465432  1.271841  2.043867
      ESP Fit Center  105 is at   1.670276  0.917039  2.043867
      ESP Fit Center  106 is at   2.079966  0.917039  2.043867
      ESP Fit Center  107 is at   2.678756  1.271841  1.924365
      ESP Fit Center  108 is at   2.571090  1.673658  1.924365
      ESP Fit Center  109 is at   2.276939  1.967809  1.924365
      ESP Fit Center  110 is at   1.875121  2.075476  1.924365
      ESP Fit Center  111 is at   1.473304  1.967809  1.924365
      ESP Fit Center  112 is at   1.179153  1.673658  1.924365
      ESP Fit Center  113 is at   1.473304  0.575872  1.924365
      ESP Fit Center  114 is at   2.571090  0.870023  1.924365
      ESP Fit Center  115 is at   3.041819  1.271841  1.730304
      ESP Fit Center  116 is at   2.963034  1.693300  1.730304
      ESP Fit Center  117 is at   2.737321  2.057840  1.730304
      ESP Fit Center  118 is at   2.395163  2.316225  1.730304
      ESP Fit Center  119 is at   1.982770  2.433561  1.730304
      ESP Fit Center  120 is at   1.555839  2.394000  1.730304
      ESP Fit Center  121 is at   1.172029  2.202885  1.730304
      ESP Fit Center  122 is at   3.299896  1.690192  1.469142
      ESP Fit Center  123 is at   3.124319  2.074651  1.469142
      ESP Fit Center  124 is at   2.847540  2.394072  1.469142
      ESP Fit Center  125 is at   2.491981  2.622575  1.469142
      ESP Fit Center  126 is at   2.086448  2.741651  1.469142
      ESP Fit Center  127 is at   1.663794  2.741651  1.469142
      ESP Fit Center  128 is at   1.258261  2.622575  1.469142
      ESP Fit Center  129 is at   3.421204  2.083287  1.150916
      ESP Fit Center  130 is at   3.182085  2.429710  1.150916
      ESP Fit Center  131 is at   2.867011  2.708841  1.150916
      ESP Fit Center  132 is at   2.494292  2.904460  1.150916
      ESP Fit Center  133 is at   2.085589  3.005196  1.150916
      ESP Fit Center  134 is at   1.664654  3.005196  1.150916
      ESP Fit Center  135 is at   1.255951  2.904460  1.150916
      ESP Fit Center  136 is at   3.419659  2.445968  0.787853
      ESP Fit Center  137 is at   3.131146  2.750547  0.787853
      ESP Fit Center  138 is at   2.783902  2.985984  0.787853
      ESP Fit Center  139 is at   2.394166  3.141269  0.787853
      ESP Fit Center  140 is at   1.980159  3.209142  0.787853
      ESP Fit Center  141 is at   1.561240  3.186429  0.787853
      ESP Fit Center  142 is at   3.565606  2.448453  0.393908
      ESP Fit Center  143 is at   3.294151  2.764660  0.393908
      ESP Fit Center  144 is at   2.964601  3.019750  0.393908
      ESP Fit Center  145 is at   2.590448  3.203281  0.393908
      ESP Fit Center  146 is at   2.187009  3.307739  0.393908
      ESP Fit Center  147 is at   1.770802  3.328846  0.393908
      ESP Fit Center  148 is at   3.621207  2.438538 -0.015782
      ESP Fit Center  149 is at   3.360045  2.756765 -0.015782
      ESP Fit Center  150 is at   3.041819  3.017927 -0.015782
      ESP Fit Center  151 is at   2.678756  3.211988 -0.015782
      ESP Fit Center  152 is at   2.284811  3.331490 -0.015782
      ESP Fit Center  153 is at   1.875121  3.371841 -0.015782
      ESP Fit Center  154 is at   1.465432  3.331490 -0.015782
      ESP Fit Center  155 is at   3.565606  2.448453 -0.425472
      ESP Fit Center  156 is at   3.294151  2.764660 -0.425472
      ESP Fit Center  157 is at   2.964601  3.019750 -0.425472
      ESP Fit Center  158 is at   2.590448  3.203281 -0.425472
      ESP Fit Center  159 is at   2.187009  3.307739 -0.425472
      ESP Fit Center  160 is at   1.770802  3.328846 -0.425472
      ESP Fit Center  161 is at   3.419659  2.445968 -0.819417
      ESP Fit Center  162 is at   3.131146  2.750547 -0.819417
      ESP Fit Center  163 is at   2.783902  2.985984 -0.819417
      ESP Fit Center  164 is at   2.394166  3.141269 -0.819417
      ESP Fit Center  165 is at   1.980159  3.209142 -0.819417
      ESP Fit Center  166 is at   1.561240  3.186429 -0.819417
      ESP Fit Center  167 is at   3.421204  2.083287 -1.182479
      ESP Fit Center  168 is at   3.182085  2.429710 -1.182479
      ESP Fit Center  169 is at   2.867011  2.708841 -1.182479
      ESP Fit Center  170 is at   2.494292  2.904460 -1.182479
      ESP Fit Center  171 is at   2.085589  3.005196 -1.182479
      ESP Fit Center  172 is at   1.664654  3.005196 -1.182479
      ESP Fit Center  173 is at   1.255951  2.904460 -1.182479
      ESP Fit Center  174 is at   3.299896  1.690192 -1.500706
      ESP Fit Center  175 is at   3.124319  2.074651 -1.500706
      ESP Fit Center  176 is at   2.847540  2.394072 -1.500706
      ESP Fit Center  177 is at   2.491981  2.622575 -1.500706
      ESP Fit Center  178 is at   2.086448  2.741651 -1.500706
      ESP Fit Center  179 is at   1.663794  2.741651 -1.500706
      ESP Fit Center  180 is at   1.258261  2.622575 -1.500706
      ESP Fit Center  181 is at   3.041819  1.271841 -1.761868
      ESP Fit Center  182 is at   2.963034  1.693300 -1.761868
      ESP Fit Center  183 is at   2.737321  2.057840 -1.761868
      ESP Fit Center  184 is at   2.395163  2.316225 -1.761868
      ESP Fit Center  185 is at   1.982770  2.433561 -1.761868
      ESP Fit Center  186 is at   1.555839  2.394000 -1.761868
      ESP Fit Center  187 is at   1.172029  2.202885 -1.761868
      ESP Fit Center  188 is at   2.678756  1.271841 -1.955929
      ESP Fit Center  189 is at   2.571090  1.673658 -1.955929
      ESP Fit Center  190 is at   2.276939  1.967809 -1.955929
      ESP Fit Center  191 is at   1.875121  2.075476 -1.955929
      ESP Fit Center  192 is at   1.473304  1.967809 -1.955929
      ESP Fit Center  193 is at   1.179153  1.673658 -1.955929
      ESP Fit Center  194 is at   1.473304  0.575872 -1.955929
      ESP Fit Center  195 is at   2.284811  1.271841 -2.075431
      ESP Fit Center  196 is at   2.079966  1.626642 -2.075431
      ESP Fit Center  197 is at   1.670276  1.626642 -2.075431
      ESP Fit Center  198 is at   1.465432  1.271841 -2.075431
      ESP Fit Center  199 is at   1.670276  0.917039 -2.075431
      ESP Fit Center  200 is at   2.079966  0.917039 -2.075431
      ESP Fit Center  201 is at   1.875121  1.271841 -2.115782
      ESP Fit Center  202 is at   0.490509  1.133308  2.098396
      ESP Fit Center  203 is at   0.900199  1.133308  2.058045
      ESP Fit Center  204 is at   0.695354  1.488110  2.058045
      ESP Fit Center  205 is at   0.285665  1.488110  2.058045
      ESP Fit Center  206 is at   0.080820  1.133308  2.058045
      ESP Fit Center  207 is at   0.285665  0.778506  2.058045
      ESP Fit Center  208 is at   0.695354  0.778506  2.058045
      ESP Fit Center  209 is at   0.892327  1.829277  1.938543
      ESP Fit Center  210 is at   0.490509  1.936943  1.938543
      ESP Fit Center  211 is at  -0.313126  1.133308  1.938543
      ESP Fit Center  212 is at  -0.205459  0.731490  1.938543
      ESP Fit Center  213 is at   0.490509  0.329673  1.938543
      ESP Fit Center  214 is at   0.892327  0.437340  1.938543
      ESP Fit Center  215 is at   1.186478  0.731490  1.938543
      ESP Fit Center  216 is at   1.010551  2.177693  1.744482
      ESP Fit Center  217 is at   1.010551  0.088923  1.744482
      ESP Fit Center  218 is at   1.010551  2.177693 -1.747690
      ESP Fit Center  219 is at   1.010551  0.088923 -1.747690
      ESP Fit Center  220 is at   0.892327  1.829277 -1.941751
      ESP Fit Center  221 is at   0.490509  1.936943 -1.941751
      ESP Fit Center  222 is at  -0.313126  1.133308 -1.941751
      ESP Fit Center  223 is at   0.490509  0.329673 -1.941751
      ESP Fit Center  224 is at   0.892327  0.437340 -1.941751
      ESP Fit Center  225 is at   1.186478  0.731490 -1.941751
      ESP Fit Center  226 is at   0.900199  1.133308 -2.061253
      ESP Fit Center  227 is at   0.695354  1.488110 -2.061253
      ESP Fit Center  228 is at   0.285665  1.488110 -2.061253
      ESP Fit Center  229 is at   0.080820  1.133308 -2.061253
      ESP Fit Center  230 is at   0.285665  0.778506 -2.061253
      ESP Fit Center  231 is at   0.695354  0.778506 -2.061253
      ESP Fit Center  232 is at   0.490509  1.133308 -2.101604
      ESP Fit Center  233 is at  -0.220548 -0.072935  2.097981
      ESP Fit Center  234 is at   0.189142 -0.072935  2.057631
      ESP Fit Center  235 is at  -0.015703  0.281866  2.057631
      ESP Fit Center  236 is at  -0.425393  0.281866  2.057631
      ESP Fit Center  237 is at  -0.630238 -0.072935  2.057631
      ESP Fit Center  238 is at  -0.425393 -0.427737  2.057631
      ESP Fit Center  239 is at  -0.015703 -0.427737  2.057631
      ESP Fit Center  240 is at   0.583087 -0.072935  1.938128
      ESP Fit Center  241 is at  -0.220548  0.730700  1.938128
      ESP Fit Center  242 is at  -0.622366  0.623033  1.938128
      ESP Fit Center  243 is at  -0.916517 -0.474753  1.938128
      ESP Fit Center  244 is at  -0.622366 -0.768904  1.938128
      ESP Fit Center  245 is at   0.475420 -0.474753  1.938128
      ESP Fit Center  246 is at   0.946149 -0.072935  1.744068
      ESP Fit Center  247 is at  -0.923640 -1.003980  1.744068
      ESP Fit Center  248 is at   0.946149 -0.072935 -1.748105
      ESP Fit Center  249 is at  -0.923640 -1.003980 -1.748105
      ESP Fit Center  250 is at   0.583087 -0.072935 -1.942166
      ESP Fit Center  251 is at   0.475420  0.328882 -1.942166
      ESP Fit Center  252 is at  -0.220548  0.730700 -1.942166
      ESP Fit Center  253 is at  -0.622366  0.623033 -1.942166
      ESP Fit Center  254 is at  -0.916517 -0.474753 -1.942166
      ESP Fit Center  255 is at  -0.622366 -0.768904 -1.942166
      ESP Fit Center  256 is at  -0.220548 -0.876570 -1.942166
      ESP Fit Center  257 is at   0.475420 -0.474753 -1.942166
      ESP Fit Center  258 is at   0.189142 -0.072935 -2.061668
      ESP Fit Center  259 is at  -0.015703  0.281866 -2.061668
      ESP Fit Center  260 is at  -0.425393  0.281866 -2.061668
      ESP Fit Center  261 is at  -0.630238 -0.072935 -2.061668
      ESP Fit Center  262 is at  -0.425393 -0.427737 -2.061668
      ESP Fit Center  263 is at  -0.015703 -0.427737 -2.061668
      ESP Fit Center  264 is at  -0.220548 -0.072935 -2.102019
      ESP Fit Center  265 is at   0.453269 -1.303038  2.100820
      ESP Fit Center  266 is at   0.862958 -1.303038  2.060469
      ESP Fit Center  267 is at   0.658114 -0.948236  2.060469
      ESP Fit Center  268 is at   0.248424 -0.948236  2.060469
      ESP Fit Center  269 is at   0.043579 -1.303038  2.060469
      ESP Fit Center  270 is at   0.248424 -1.657839  2.060469
      ESP Fit Center  271 is at   0.658114 -1.657839  2.060469
      ESP Fit Center  272 is at   0.855086 -0.607069  1.940967
      ESP Fit Center  273 is at   0.453269 -0.499402  1.940967
      ESP Fit Center  274 is at  -0.242700 -0.901220  1.940967
      ESP Fit Center  275 is at  -0.350367 -1.303038  1.940967
      ESP Fit Center  276 is at  -0.242700 -1.704855  1.940967
      ESP Fit Center  277 is at   0.051451 -1.999006  1.940967
      ESP Fit Center  278 is at   0.453269 -2.106673  1.940967
      ESP Fit Center  279 is at   0.855086 -1.999006  1.940967
      ESP Fit Center  280 is at   1.149237 -1.704855  1.940967
      ESP Fit Center  281 is at   0.973310 -0.258653  1.746907
      ESP Fit Center  282 is at  -0.693564 -1.517418  1.746907
      ESP Fit Center  283 is at   0.973310 -2.347422  1.746907
      ESP Fit Center  284 is at   0.973310 -0.258653 -1.745266
      ESP Fit Center  285 is at  -0.693564 -1.517418 -1.745266
      ESP Fit Center  286 is at   0.973310 -2.347422 -1.745266
      ESP Fit Center  287 is at   0.855086 -0.607069 -1.939327
      ESP Fit Center  288 is at  -0.242700 -0.901220 -1.939327
      ESP Fit Center  289 is at  -0.350367 -1.303038 -1.939327
      ESP Fit Center  290 is at  -0.242700 -1.704855 -1.939327
      ESP Fit Center  291 is at   0.051451 -1.999006 -1.939327
      ESP Fit Center  292 is at   0.453269 -2.106673 -1.939327
      ESP Fit Center  293 is at   0.855086 -1.999006 -1.939327
      ESP Fit Center  294 is at   1.149237 -1.704855 -1.939327
      ESP Fit Center  295 is at   0.862958 -1.303038 -2.058829
      ESP Fit Center  296 is at   0.658114 -0.948236 -2.058829
      ESP Fit Center  297 is at   0.248424 -0.948236 -2.058829
      ESP Fit Center  298 is at   0.043579 -1.303038 -2.058829
      ESP Fit Center  299 is at   0.248424 -1.657839 -2.058829
      ESP Fit Center  300 is at   0.658114 -1.657839 -2.058829
      ESP Fit Center  301 is at   0.453269 -1.303038 -2.099180
      ESP Fit Center  302 is at  -0.049220 -2.417096  1.977348
      ESP Fit Center  303 is at   0.358287 -2.417096  1.934517
      ESP Fit Center  304 is at  -0.252974 -2.064185  1.934517
      ESP Fit Center  305 is at  -0.456727 -2.417096  1.934517
      ESP Fit Center  306 is at  -0.252974 -2.770007  1.934517
      ESP Fit Center  307 is at   0.154533 -2.770007  1.934517
      ESP Fit Center  308 is at   0.747983 -2.417096  1.807897
      ESP Fit Center  309 is at  -0.739619 -2.018494  1.807897
      ESP Fit Center  310 is at  -0.846424 -2.417096  1.807897
      ESP Fit Center  311 is at  -0.739619 -2.815698  1.807897
      ESP Fit Center  312 is at  -0.447822 -3.107495  1.807897
      ESP Fit Center  313 is at  -0.049220 -3.214300  1.807897
      ESP Fit Center  314 is at   0.349382 -3.107495  1.807897
      ESP Fit Center  315 is at   0.641178 -2.815698  1.807897
      ESP Fit Center  316 is at  -1.028721 -1.810615  1.603021
      ESP Fit Center  317 is at  -1.181663 -2.205406  1.603021
      ESP Fit Center  318 is at  -1.181663 -2.628786  1.603021
      ESP Fit Center  319 is at  -1.028721 -3.023577  1.603021
      ESP Fit Center  320 is at  -0.743491 -3.336459  1.603021
      ESP Fit Center  321 is at  -0.364496 -3.525176  1.603021
      ESP Fit Center  322 is at   0.057078 -3.564240  1.603021
      ESP Fit Center  323 is at   0.464297 -3.448377  1.603021
      ESP Fit Center  324 is at   0.802162 -3.193233  1.603021
      ESP Fit Center  325 is at   1.025043 -2.833268  1.603021
      ESP Fit Center  326 is at  -1.446783 -2.827457  1.328844
      ESP Fit Center  327 is at  -1.274560 -3.204574  1.328844
      ESP Fit Center  328 is at  -1.003067 -3.517893  1.328844
      ESP Fit Center  329 is at  -0.654299 -3.742033  1.328844
      ESP Fit Center  330 is at  -0.256511 -3.858834  1.328844
      ESP Fit Center  331 is at   0.158070 -3.858834  1.328844
      ESP Fit Center  332 is at   0.555858 -3.742033  1.328844
      ESP Fit Center  333 is at   0.904626 -3.517893  1.328844
      ESP Fit Center  334 is at   1.176119 -3.204574  1.328844
      ESP Fit Center  335 is at   1.348342 -2.827457  1.328844
      ESP Fit Center  336 is at  -1.627432 -3.041954  0.997348
      ESP Fit Center  337 is at  -1.422454 -3.414808  0.997348
      ESP Fit Center  338 is at  -1.131190 -3.724973  0.997348
      ESP Fit Center  339 is at  -0.771942 -3.952958  0.997348
      ESP Fit Center  340 is at  -0.367283 -4.084440  0.997348
      ESP Fit Center  341 is at   0.057361 -4.111156  0.997348
      ESP Fit Center  342 is at   0.475308 -4.031428  0.997348
      ESP Fit Center  343 is at   0.860297 -3.850266  0.997348
      ESP Fit Center  344 is at   1.188138 -3.579053  0.997348
      ESP Fit Center  345 is at   1.438231 -3.234829  0.997348
      ESP Fit Center  346 is at  -1.866555 -2.831891  0.623021
      ESP Fit Center  347 is at  -1.728690 -3.225886  0.623021
      ESP Fit Center  348 is at  -1.506610 -3.579325  0.623021
      ESP Fit Center  349 is at  -1.211449 -3.874485  0.623021
      ESP Fit Center  350 is at  -0.858010 -4.096566  0.623021
      ESP Fit Center  351 is at  -0.464015 -4.234430  0.623021
      ESP Fit Center  352 is at  -0.049220 -4.281167  0.623021
      ESP Fit Center  353 is at   0.365574 -4.234430  0.623021
      ESP Fit Center  354 is at   0.759570 -4.096566  0.623021
      ESP Fit Center  355 is at   1.113009 -3.874485  0.623021
      ESP Fit Center  356 is at   1.408169 -3.579325  0.623021
      ESP Fit Center  357 is at  -1.896446 -3.039498  0.222224
      ESP Fit Center  358 is at  -1.719460 -3.422046  0.222224
      ESP Fit Center  359 is at  -1.464376 -3.757603  0.222224
      ESP Fit Center  360 is at  -1.143121 -4.030479  0.222224
      ESP Fit Center  361 is at  -0.770717 -4.227916  0.222224
      ESP Fit Center  362 is at  -0.364576 -4.340680  0.222224
      ESP Fit Center  363 is at   0.056311 -4.363500  0.222224
      ESP Fit Center  364 is at   0.472263 -4.295308  0.222224
      ESP Fit Center  365 is at   0.863831 -4.139293  0.222224
      ESP Fit Center  366 is at   1.212706 -3.902750  0.222224
      ESP Fit Center  367 is at   1.502574 -3.596740  0.222224
      ESP Fit Center  368 is at  -1.896446 -3.039498 -0.187528
      ESP Fit Center  369 is at  -1.719460 -3.422046 -0.187528
      ESP Fit Center  370 is at  -1.464376 -3.757603 -0.187528
      ESP Fit Center  371 is at  -1.143121 -4.030479 -0.187528
      ESP Fit Center  372 is at  -0.770717 -4.227916 -0.187528
      ESP Fit Center  373 is at  -0.364576 -4.340680 -0.187528
      ESP Fit Center  374 is at   0.056311 -4.363500 -0.187528
      ESP Fit Center  375 is at   0.472263 -4.295308 -0.187528
      ESP Fit Center  376 is at   0.863831 -4.139293 -0.187528
      ESP Fit Center  377 is at   1.212706 -3.902750 -0.187528
      ESP Fit Center  378 is at   1.502574 -3.596740 -0.187528
      ESP Fit Center  379 is at  -1.728690 -3.225886 -0.588325
      ESP Fit Center  380 is at  -1.506610 -3.579325 -0.588325
      ESP Fit Center  381 is at  -1.211449 -3.874485 -0.588325
      ESP Fit Center  382 is at  -0.858010 -4.096566 -0.588325
      ESP Fit Center  383 is at  -0.464015 -4.234430 -0.588325
      ESP Fit Center  384 is at  -0.049220 -4.281167 -0.588325
      ESP Fit Center  385 is at   0.365574 -4.234430 -0.588325
      ESP Fit Center  386 is at   0.759570 -4.096566 -0.588325
      ESP Fit Center  387 is at   1.113009 -3.874485 -0.588325
      ESP Fit Center  388 is at   1.408169 -3.579325 -0.588325
      ESP Fit Center  389 is at  -1.627432 -3.041954 -0.962652
      ESP Fit Center  390 is at  -1.422454 -3.414808 -0.962652
      ESP Fit Center  391 is at  -1.131190 -3.724973 -0.962652
      ESP Fit Center  392 is at  -0.771942 -3.952958 -0.962652
      ESP Fit Center  393 is at  -0.367283 -4.084440 -0.962652
      ESP Fit Center  394 is at   0.057361 -4.111156 -0.962652
      ESP Fit Center  395 is at   0.475308 -4.031428 -0.962652
      ESP Fit Center  396 is at   0.860297 -3.850266 -0.962652
      ESP Fit Center  397 is at   1.188138 -3.579053 -0.962652
      ESP Fit Center  398 is at   1.438231 -3.234829 -0.962652
      ESP Fit Center  399 is at  -1.446783 -2.827457 -1.294148
      ESP Fit Center  400 is at  -1.274560 -3.204574 -1.294148
      ESP Fit Center  401 is at  -1.003067 -3.517893 -1.294148
      ESP Fit Center  402 is at  -0.654299 -3.742033 -1.294148
      ESP Fit Center  403 is at  -0.256511 -3.858834 -1.294148
      ESP Fit Center  404 is at   0.158070 -3.858834 -1.294148
      ESP Fit Center  405 is at   0.555858 -3.742033 -1.294148
      ESP Fit Center  406 is at   0.904626 -3.517893 -1.294148
      ESP Fit Center  407 is at   1.176119 -3.204574 -1.294148
      ESP Fit Center  408 is at   1.348342 -2.827457 -1.294148
      ESP Fit Center  409 is at  -1.028721 -1.810615 -1.568325
      ESP Fit Center  410 is at  -1.181663 -2.628786 -1.568325
      ESP Fit Center  411 is at  -1.028721 -3.023577 -1.568325
      ESP Fit Center  412 is at  -0.743491 -3.336459 -1.568325
      ESP Fit Center  413 is at  -0.364496 -3.525176 -1.568325
      ESP Fit Center  414 is at   0.057078 -3.564240 -1.568325
      ESP Fit Center  415 is at   0.464297 -3.448377 -1.568325
      ESP Fit Center  416 is at   0.802162 -3.193233 -1.568325
      ESP Fit Center  417 is at   1.025043 -2.833268 -1.568325
      ESP Fit Center  418 is at   0.747983 -2.417096 -1.773201
      ESP Fit Center  419 is at  -0.739619 -2.018494 -1.773201
      ESP Fit Center  420 is at  -0.846424 -2.417096 -1.773201
      ESP Fit Center  421 is at  -0.739619 -2.815698 -1.773201
      ESP Fit Center  422 is at  -0.447822 -3.107495 -1.773201
      ESP Fit Center  423 is at  -0.049220 -3.214300 -1.773201
      ESP Fit Center  424 is at   0.349382 -3.107495 -1.773201
      ESP Fit Center  425 is at   0.641178 -2.815698 -1.773201
      ESP Fit Center  426 is at   0.358287 -2.417096 -1.899821
      ESP Fit Center  427 is at  -0.252974 -2.064185 -1.899821
      ESP Fit Center  428 is at  -0.456727 -2.417096 -1.899821
      ESP Fit Center  429 is at  -0.252974 -2.770007 -1.899821
      ESP Fit Center  430 is at   0.154533 -2.770007 -1.899821
      ESP Fit Center  431 is at  -0.049220 -2.417096 -1.942652
      ESP Fit Center  432 is at  -1.605488  0.210645  2.113752
      ESP Fit Center  433 is at  -1.195799  0.210645  2.073401
      ESP Fit Center  434 is at  -1.400644  0.565447  2.073401
      ESP Fit Center  435 is at  -1.810333  0.565447  2.073401
      ESP Fit Center  436 is at  -2.015178  0.210645  2.073401
      ESP Fit Center  437 is at  -1.810333 -0.144157  2.073401
      ESP Fit Center  438 is at  -1.400644 -0.144157  2.073401
      ESP Fit Center  439 is at  -0.909520  0.612463  1.953899
      ESP Fit Center  440 is at  -1.203671  0.906613  1.953899
      ESP Fit Center  441 is at  -2.301457  0.612463  1.953899
      ESP Fit Center  442 is at  -2.409124  0.210645  1.953899
      ESP Fit Center  443 is at  -1.203671 -0.485324  1.953899
      ESP Fit Center  444 is at  -2.752321  0.425025  1.759838
      ESP Fit Center  445 is at  -1.085447 -0.833740  1.759838
[...]
 5790 Fit       0.025706
 5791 Fit       0.024376
 5792 Fit       0.025885
 5793 Fit       0.008918
 5794 Fit       0.007603
 5795 Fit       0.005108
 5796 Fit       0.012813
 5797 Fit       0.012642
 5798 Fit       0.011721
 5799 Fit       0.009924
 5800 Fit       0.007059
 5801 Fit       0.002839
 5802 Fit       0.016032
 5803 Fit       0.015818
 5804 Fit       0.015099
 5805 Fit       0.013766
 5806 Fit       0.011669
 5807 Fit       0.008592
 5808 Fit       0.004195
 5809 Fit       0.018955
 5810 Fit       0.018821
 5811 Fit       0.018426
 5812 Fit       0.017656
 5813 Fit       0.016392
 5814 Fit       0.014486
 5815 Fit       0.011738
 5816 Fit       0.007840
 5817 Fit       0.002276
 5818 Fit       0.021607
 5819 Fit       0.021155
 5820 Fit       0.020580
 5821 Fit       0.019749
 5822 Fit       0.018537
 5823 Fit       0.016808
 5824 Fit       0.014389
 5825 Fit       0.011027
 5826 Fit       0.006319
 5827 Fit       0.023742
 5828 Fit       0.022999
 5829 Fit       0.022230
 5830 Fit       0.021285
 5831 Fit       0.020031
 5832 Fit       0.018331
 5833 Fit       0.016021
 5834 Fit       0.012876
 5835 Fit       0.008542
 5836 Fit       0.025289
 5837 Fit       0.024266
 5838 Fit       0.023274
 5839 Fit       0.022132
 5840 Fit       0.020685
 5841 Fit       0.018777
 5842 Fit       0.016222
 5843 Fit       0.012759
 5844 Fit       0.007980
 5845 Fit       0.026230
 5846 Fit       0.024954
 5847 Fit       0.023731
 5848 Fit       0.022350
 5849 Fit       0.020628
 5850 Fit       0.018379
 5851 Fit       0.015375
 5852 Fit       0.011293
 5853 Fit       0.005613
 5854 Fit       0.026594
 5855 Fit       0.025121
 5856 Fit       0.023693
 5857 Fit       0.022084
 5858 Fit       0.020093
 5859 Fit       0.017511
 5860 Fit       0.014083
 5861 Fit       0.009448
 5862 Fit       0.026264
 5863 Fit       0.024554
 5864 Fit       0.022815
 5865 Fit       0.020774
 5866 Fit       0.018181
 5867 Fit       0.014766
 5868 Fit       0.010190
 5869 Fit       0.025332
 5870 Fit       0.023400
 5871 Fit       0.021299
 5872 Fit       0.018728
 5873 Fit       0.015408
 5874 Fit       0.011064
 5875 Fit       0.021424
 5876 Fit       0.018706
 5877 Fit       0.015252
 5878 Fit       0.010912
 5879 Fit       0.018189
 5880 Fit       0.004891
 5881 Fit       0.008914
 5882 Fit       0.011256
 5883 Fit       0.011534
 5884 Fit       0.000266
 5885 Fit       0.006088
 5886 Fit       0.010577
 5887 Fit       0.013682
 5888 Fit       0.015272
 5889 Fit       0.014972
 5890 Fit      -0.000791
 5891 Fit       0.005895
 5892 Fit       0.011106
 5893 Fit       0.015041
 5894 Fit       0.017796
 5895 Fit       0.019267
 5896 Fit      -0.001912
 5897 Fit       0.005410
 5898 Fit       0.011137
 5899 Fit       0.015647
 5900 Fit       0.019186
 5901 Fit       0.021871
 5902 Fit       0.023631
 5903 Fit       0.001281
 5904 Fit       0.008410
 5905 Fit       0.014017
 5906 Fit       0.018552
 5907 Fit       0.022325
 5908 Fit       0.025542
 5909 Fit       0.028284
 5910 Fit      -0.003899
 5911 Fit       0.004673
 5912 Fit       0.011319
 5913 Fit       0.016685
 5914 Fit       0.021218
 5915 Fit       0.025263
 5916 Fit       0.029137
 5917 Fit      -0.001920
 5918 Fit       0.006343
 5919 Fit       0.012849
 5920 Fit       0.018229
 5921 Fit       0.022944
 5922 Fit       0.027399
 5923 Fit       0.032040
 5924 Fit      -0.004416
 5925 Fit       0.004706
 5926 Fit       0.011828
 5927 Fit       0.017705
 5928 Fit       0.022888
 5929 Fit       0.027873
 5930 Fit       0.033239
 5931 Fit       0.000960
 5932 Fit       0.009072
 5933 Fit       0.015663
 5934 Fit       0.021394
 5935 Fit       0.026841
 5936 Fit       0.032657
 5937 Fit      -0.002885
 5938 Fit       0.005926
 5939 Fit       0.013057
 5940 Fit       0.019181
 5941 Fit       0.024884
 5942 Fit       0.030796
 5943 Fit      -0.001516
 5944 Fit       0.007055
 5945 Fit       0.014189
 5946 Fit       0.020490
 5947 Fit       0.026577
 5948 Fit       0.033163
 5949 Fit       0.008174
 5950 Fit       0.015112
 5951 Fit       0.021413
 5952 Fit       0.027599
 5953 Fit      -0.006477
 5954 Fit      -0.009720
 5955 Fit      -0.007009
 5956 Fit      -0.003410
 5957 Fit      -0.003407
 5958 Fit      -0.006367
 5959 Fit      -0.009325
 5960 Fit      -0.013173
 5961 Fit      -0.011377
 5962 Fit      -0.000525
 5963 Fit      -0.003378
 5964 Fit      -0.006487
 5965 Fit      -0.009678
 5966 Fit      -0.012403
 5967 Fit      -0.013701
 5968 Fit      -0.016887
 5969 Fit      -0.015362
 5970 Fit      -0.000967
 5971 Fit      -0.003803
 5972 Fit      -0.006725
 5973 Fit      -0.009854
 5974 Fit      -0.013111
 5975 Fit      -0.016086
 5976 Fit      -0.017987
 5977 Fit      -0.018132
 5978 Fit      -0.000492
 5979 Fit      -0.003215
 5980 Fit      -0.006032
 5981 Fit      -0.009101
 5982 Fit      -0.012526
 5983 Fit      -0.016294
 5984 Fit      -0.020120
 5985 Fit      -0.023260
 5986 Fit      -0.001611
 5987 Fit      -0.004381
 5988 Fit      -0.007344
 5989 Fit      -0.010654
 5990 Fit      -0.014479
 5991 Fit      -0.018941
 5992 Fit      -0.023988
 5993 Fit      -0.002723
 5994 Fit      -0.005635
 5995 Fit      -0.008767
 5996 Fit      -0.012317
 5997 Fit      -0.016520
 5998 Fit      -0.021632
 5999 Fit      -0.027867
 6000 Fit      -0.001556
 6001 Fit      -0.004762
 6002 Fit      -0.008055
 6003 Fit      -0.011695
 6004 Fit      -0.015989
 6005 Fit      -0.021317
 6006 Fit      -0.028158
 6007 Fit      -0.003787
 6008 Fit      -0.007268
 6009 Fit      -0.010945
 6010 Fit      -0.015173
 6011 Fit      -0.020373
 6012 Fit      -0.027117
 6013 Fit      -0.005145
 6014 Fit      -0.008896
 6015 Fit      -0.012921
 6016 Fit      -0.017650
 6017 Fit      -0.023618
 6018 Fit      -0.008007
 6019 Fit      -0.012227
 6020 Fit      -0.017055
 6021 Fit      -0.023091
 6022 Fit      -0.031188
 6023 Fit      -0.014598
 6024 Fit      -0.020218
 6025 Fit      -0.027535
 6026 Fit       0.001064
 6027 Fit      -0.001760
 6028 Fit      -0.004726
 6029 Fit      -0.007918
 6030 Fit      -0.011510
 6031 Fit      -0.015737
 6032 Fit      -0.020890
 6033 Fit      -0.027280
 6034 Fit      -0.000075
 6035 Fit      -0.001585
 6036 Fit      -0.003641
 6037 Fit      -0.006080
 6038 Fit      -0.008901
 6039 Fit      -0.012194
 6040 Fit      -0.016087
 6041 Fit      -0.020688
 6042 Fit      -0.025961
 6043 Fit      -0.002583
 6044 Fit      -0.002577
 6045 Fit      -0.003508
 6046 Fit      -0.005068
 6047 Fit      -0.007102
 6048 Fit      -0.009566
 6049 Fit      -0.012467
 6050 Fit      -0.015799
 6051 Fit      -0.019452
 6052 Fit      -0.023072
 6053 Fit      -0.025913
 6054 Fit      -0.008167
 6055 Fit      -0.005645
 6056 Fit      -0.004439
 6057 Fit      -0.004389
 6058 Fit      -0.005214
 6059 Fit      -0.006685
 6060 Fit      -0.008663
 6061 Fit      -0.011059
 6062 Fit      -0.013758
 6063 Fit      -0.016524
 6064 Fit      -0.018910
 6065 Fit      -0.020302
 6066 Fit      -0.020323
 6067 Fit      -0.019464
 6068 Fit      -0.016384
 6069 Fit      -0.016878
 6070 Fit      -0.018493
 6071 Fit      -0.017929
 6072 Fit      -0.017166
 6073 Fit      -0.015924
 6074 Fit      -0.013888
 6075 Fit      -0.011229
 6076 Fit      -0.008596
 6077 Fit      -0.006652
 6078 Fit      -0.005719
 6079 Fit      -0.005769
 6080 Fit      -0.006621
 6081 Fit      -0.008083
 6082 Fit      -0.009979
 6083 Fit      -0.012099
 6084 Fit      -0.014129
 6085 Fit      -0.015650
 6086 Fit      -0.016345
 6087 Fit      -0.016371
 6088 Fit      -0.014199
 6089 Fit      -0.014672
 6090 Fit      -0.015198
 6091 Fit      -0.015464
 6092 Fit      -0.015282
 6093 Fit      -0.014667
 6094 Fit      -0.013587
 6095 Fit      -0.011928
 6096 Fit      -0.009882
 6097 Fit      -0.008030
 6098 Fit      -0.006930
 6099 Fit      -0.006790
 6100 Fit      -0.007513
 6101 Fit      -0.008864
 6102 Fit      -0.010533
 6103 Fit      -0.012132
 6104 Fit      -0.013273
 6105 Fit      -0.013852
 6106 Fit      -0.012430
 6107 Fit      -0.012904
 6108 Fit      -0.013091
 6109 Fit      -0.012717
 6110 Fit      -0.011686
 6111 Fit      -0.010101
 6112 Fit      -0.008531
 6113 Fit      -0.007768
 6114 Fit      -0.008119
 6115 Fit      -0.009300
 6116 Fit      -0.010707
 6117 Fit      -0.011774
 6118 Fit      -0.011032
 6119 Fit      -0.011312
 6120 Fit      -0.010507
 6121 Fit      -0.009144
 6122 Fit      -0.008915
 6123 Fit      -0.010010
 6124 Fit      -0.009955
 6125 Fit       0.005465
 6126 Fit       0.004214
 6127 Fit       0.004809
 6128 Fit       0.005792
 6129 Fit       0.006270
 6130 Fit       0.005824
 6131 Fit       0.004766
 6132 Fit       0.002432
 6133 Fit       0.002828
 6134 Fit       0.003813
 6135 Fit       0.004880
 6136 Fit       0.005731
 6137 Fit       0.006351
 6138 Fit       0.006695
 6139 Fit       0.006592
 6140 Fit       0.005939
 6141 Fit       0.004872
 6142 Fit       0.003712
 6143 Fit       0.002797
 6144 Fit      -0.000009
 6145 Fit       0.000235
 6146 Fit       0.001162
 6147 Fit       0.002444
 6148 Fit       0.003642
 6149 Fit       0.004560
 6150 Fit       0.005255
 6151 Fit       0.005853
 6152 Fit       0.006391
 6153 Fit       0.006793
 6154 Fit       0.006911
 6155 Fit       0.006617
 6156 Fit       0.005880
 6157 Fit       0.004802
 6158 Fit       0.003560
 6159 Fit       0.002329
 6160 Fit       0.001237
 6161 Fit       0.000401
 6162 Fit      -0.003297
 6163 Fit      -0.003278
 6164 Fit      -0.002361
 6165 Fit      -0.000771
 6166 Fit       0.000953
 6167 Fit       0.002354
 6168 Fit       0.003312
 6169 Fit       0.003966
 6170 Fit       0.004515
 6171 Fit       0.005092
 6172 Fit       0.005723
 6173 Fit       0.006342
 6174 Fit       0.006818
 6175 Fit       0.006997
 6176 Fit       0.006758
 6177 Fit       0.006062
 6178 Fit       0.004982
 6179 Fit       0.003665
 6180 Fit       0.002263
 6181 Fit       0.000884
 6182 Fit      -0.000414
 6183 Fit      -0.001599
 6184 Fit      -0.002623
 6185 Fit      -0.002681
 6186 Fit      -0.000420
 6187 Fit       0.001120
 6188 Fit       0.001996
 6189 Fit       0.002498
 6190 Fit       0.002913
 6191 Fit       0.003426
 6192 Fit       0.004104
 6193 Fit       0.004921
 6194 Fit       0.005781
 6195 Fit       0.006540
 6196 Fit       0.007028
 6197 Fit       0.007085
 6198 Fit       0.006619
 6199 Fit       0.005647
 6200 Fit       0.004295
 6201 Fit      -0.000205
 6202 Fit       0.000433
 6203 Fit       0.000653
 6204 Fit       0.000830
 6205 Fit       0.001185
 6206 Fit       0.001806
 6207 Fit       0.002694
 6208 Fit       0.003787
 6209 Fit       0.004977
 6210 Fit       0.006113
 6211 Fit      -0.001312
 6212 Fit      -0.001453
 6213 Fit      -0.001725
 6214 Fit      -0.001752
 6215 Fit      -0.001374
 6216 Fit      -0.000559
 6217 Fit       0.007458
 6218 Fit       0.007196
 6219 Fit       0.006488
 6220 Fit       0.006719
 6221 Fit       0.007242
 6222 Fit       0.007326
 6223 Fit       0.006951
 6224 Fit       0.006116
 6225 Fit       0.004848
 6226 Fit       0.004945
 6227 Fit       0.006184
 6228 Fit       0.006990
 6229 Fit       0.007361
 6230 Fit       0.007295
 6231 Fit       0.006792
 6232 Fit       0.005858
 6233 Fit       0.004511
 6234 Fit       0.002799
 6235 Fit       0.002102
 6236 Fit       0.004137
 6237 Fit       0.005659
 6238 Fit       0.006697
 6239 Fit       0.007273
 6240 Fit       0.007398
 6241 Fit       0.007079
 6242 Fit       0.006320
 6243 Fit       0.005124
 6244 Fit       0.003507
 6245 Fit       0.001513
 6246 Fit       0.001063
 6247 Fit       0.003329
 6248 Fit       0.005045
 6249 Fit       0.006259
 6250 Fit       0.007006
 6251 Fit       0.007308
 6252 Fit       0.007176
 6253 Fit       0.006617
 6254 Fit       0.005631
 6255 Fit       0.004219
 6256 Fit       0.002384
 6257 Fit      -0.001516
 6258 Fit       0.001275
 6259 Fit       0.003440
 6260 Fit       0.005055
 6261 Fit       0.006173
 6262 Fit       0.006829
 6263 Fit       0.007045
 6264 Fit       0.006834
 6265 Fit       0.006203
 6266 Fit       0.005150
 6267 Fit       0.003671
 6268 Fit       0.001757
 6269 Fit      -0.001389
 6270 Fit       0.001362
 6271 Fit       0.003456
 6272 Fit       0.004972
 6273 Fit       0.005965
 6274 Fit       0.006471
 6275 Fit       0.006515
 6276 Fit       0.006109
 6277 Fit       0.005259
 6278 Fit       0.003963
 6279 Fit       0.002213
 6280 Fit      -0.002945
 6281 Fit       0.000118
 6282 Fit       0.002435
 6283 Fit       0.004101
 6284 Fit       0.005183
 6285 Fit       0.005727
 6286 Fit       0.005764
 6287 Fit       0.005314
 6288 Fit       0.004392
 6289 Fit       0.003004
 6290 Fit       0.001160
 6291 Fit      -0.004568
 6292 Fit      -0.001274
 6293 Fit       0.001211
 6294 Fit       0.002991
 6295 Fit       0.004139
 6296 Fit       0.004710
 6297 Fit       0.004745
 6298 Fit       0.004276
 6299 Fit       0.003336
 6300 Fit       0.001966
 6301 Fit      -0.006640
 6302 Fit      -0.002911
 6303 Fit      -0.000143
 6304 Fit       0.001784
 6305 Fit       0.002962
 6306 Fit       0.003464
 6307 Fit       0.003353
 6308 Fit       0.002701
 6309 Fit       0.001608
 6310 Fit      -0.004683
 6311 Fit      -0.001679
 6312 Fit       0.000348
 6313 Fit       0.001502
 6314 Fit       0.001887
 6315 Fit       0.001620
 6316 Fit       0.000876
 6317 Fit      -0.004808
 6318 Fit      -0.002120
 6319 Fit      -0.000588
 6320 Fit      -0.000055
 6321 Fit      -0.000287
 6322 Fit      -0.003720
 6323 Fit      -0.002518
 6324 Fit       0.007304
 6325 Fit       0.009110
 6326 Fit       0.009603
 6327 Fit       0.007139
 6328 Fit       0.010026
 6329 Fit       0.011764
 6330 Fit       0.012514
 6331 Fit       0.012384
 6332 Fit       0.001135
 6333 Fit       0.006440
 6334 Fit       0.010147
 6335 Fit       0.012625
 6336 Fit       0.014133
 6337 Fit       0.014844
 6338 Fit       0.014874
 6339 Fit       0.014303
 6340 Fit       0.004994
 6341 Fit       0.009488
 6342 Fit       0.012588
 6343 Fit       0.014668
 6344 Fit       0.015960
 6345 Fit       0.016614
 6346 Fit       0.016737
 6347 Fit       0.016413
 6348 Fit       0.015714
 6349 Fit       0.004123
 6350 Fit       0.009258
 6351 Fit       0.012759
 6352 Fit       0.015140
 6353 Fit       0.016694
 6354 Fit       0.017601
 6355 Fit       0.017986
 6356 Fit       0.017945
 6357 Fit       0.017570
 6358 Fit       0.016963
 6359 Fit       0.003081
 6360 Fit       0.008684
 6361 Fit       0.012486
 6362 Fit       0.015100
 6363 Fit       0.016863
 6364 Fit       0.017975
 6365 Fit       0.018569
 6366 Fit       0.018743
 6367 Fit       0.018586
 6368 Fit       0.018198
 6369 Fit       0.017718
 6370 Fit       0.008406
 6371 Fit       0.012295
 6372 Fit       0.014981
 6373 Fit       0.016815
 6374 Fit       0.018002
 6375 Fit       0.018675
 6376 Fit       0.018931
 6377 Fit       0.018855
 6378 Fit       0.018539
 6379 Fit       0.018111
 6380 Fit       0.003551
 6381 Fit       0.008967
 6382 Fit       0.012644
 6383 Fit       0.015170
 6384 Fit       0.016866
 6385 Fit       0.017925
 6386 Fit       0.018473
 6387 Fit       0.018605
 6388 Fit       0.018409
 6389 Fit       0.017985
 6390 Fit       0.017482
 6391 Fit       0.004903
 6392 Fit       0.009712
 6393 Fit       0.012992
 6394 Fit       0.015213
 6395 Fit       0.016643
 6396 Fit       0.017449
 6397 Fit       0.017744
 6398 Fit       0.017618
 6399 Fit       0.017161
 6400 Fit       0.016485
 6401 Fit       0.005886
 6402 Fit       0.009983
 6403 Fit       0.012802
 6404 Fit       0.014671
 6405 Fit       0.015794
 6406 Fit       0.016303
 6407 Fit       0.016290
 6408 Fit       0.015834
 6409 Fit       0.015005
 6410 Fit       0.002412
 6411 Fit       0.007151
 6412 Fit       0.010453
 6413 Fit       0.012630
 6414 Fit       0.013897
 6415 Fit       0.014399
 6416 Fit       0.014232
 6417 Fit       0.013461
 6418 Fit       0.007504
 6419 Fit       0.010008
 6420 Fit       0.011435
 6421 Fit       0.011910
 6422 Fit       0.011512
 6423 Fit       0.008573
 6424 Fit       0.001020
 6425 Fit      -0.000131
 6426 Fit      -0.001203
 6427 Fit       0.003516
 6428 Fit       0.002058
 6429 Fit       0.000430
 6430 Fit      -0.001250
 6431 Fit       0.007302
 6432 Fit       0.005491
 6433 Fit       0.003701
 6434 Fit       0.001781
 6435 Fit      -0.000384
 6436 Fit      -0.002812
 6437 Fit       0.009394
 6438 Fit       0.007160
 6439 Fit       0.005136
 6440 Fit       0.003076
 6441 Fit       0.000771
 6442 Fit      -0.001967
 6443 Fit      -0.005320
 6444 Fit       0.012459
 6445 Fit       0.009492
 6446 Fit       0.007091
 6447 Fit       0.004867
 6448 Fit       0.002530
 6449 Fit      -0.000183
 6450 Fit      -0.003560
 6451 Fit      -0.007989
 6452 Fit       0.015446
 6453 Fit       0.011662
 6454 Fit       0.008843
 6455 Fit       0.006452
 6456 Fit       0.004129
 6457 Fit       0.001587
 6458 Fit      -0.001459
 6459 Fit      -0.005365
 6460 Fit      -0.010674
 6461 Fit       0.016675
 6462 Fit       0.012499
 6463 Fit       0.009462
 6464 Fit       0.006960
 6465 Fit       0.004603
 6466 Fit       0.002095
 6467 Fit      -0.000847
 6468 Fit      -0.004556
 6469 Fit      -0.009517
 6470 Fit       0.014501
 6471 Fit       0.010833
 6472 Fit       0.008018
 6473 Fit       0.005554
 6474 Fit       0.003089
 6475 Fit       0.000325
 6476 Fit      -0.003052
 6477 Fit      -0.007450
 6478 Fit      -0.013503
 6479 Fit       0.010764
 6480 Fit       0.007864
 6481 Fit       0.005358
 6482 Fit       0.002886
 6483 Fit       0.000138
 6484 Fit      -0.003199
 6485 Fit      -0.007518
 6486 Fit      -0.013390
 6487 Fit       0.009570
 6488 Fit       0.006977
 6489 Fit       0.004637
 6490 Fit       0.002290
 6491 Fit      -0.000327
 6492 Fit      -0.003494
 6493 Fit      -0.007543
 6494 Fit      -0.012920
 6495 Fit       0.004108
 6496 Fit       0.002021
 6497 Fit      -0.000357
 6498 Fit      -0.003253
 6499 Fit      -0.006951
 6500 Fit      -0.011794
 6501 Fit      -0.018175
 6502 Fit       0.000768
 6503 Fit      -0.001040
 6504 Fit      -0.003474
 6505 Fit      -0.006693
 6506 Fit      -0.010915
 6507 Fit      -0.016309
 6508 Fit      -0.005244
 6509 Fit      -0.008268
 6510 Fit      -0.012395
 6511 Fit      -0.017456
 -----------------------------------------------------------------
 Leave Link  602 at Tue Oct 28 03:36:15 2025, MaxMem=   104857600 cpu:               1.2 elap:               0.2

 Test job not archived.
 1\1\GINC-RAYQUAZA\FOpt\RHF\6-31G(d)\C7H9N5O1\YILAN\28-Oct-2025\0\\#HF/
 6-31G* SCF=tight Test Pop=MK iop(6/33=2) iop(6/42=6) opt\\remark line 
 goes here\\0,1\N,34.1318544646,33.9262252936,23.2531595783\C,33.566069
 0568,32.824239596,23.8142088082\N,34.0191449029,32.2410005938,24.86480
 57541\C,35.1216705407,32.8430404343,25.3876616987\C,35.7847200788,33.9
 538188521,24.90995161\C,35.2740832099,34.5942456913,23.7379622564\O,35
 .6686797769,35.569290082,23.1583118324\C,36.8935174272,34.2114939627,2
 5.7933338317\C,37.9058721284,35.313958642,25.6661984089\N,38.646296623
 3,35.481189004,26.9095492225\C,36.8412808376,33.2536748503,26.74116326
 45\N,35.7577769132,32.4206643683,26.4886702018\N,32.4273242907,32.3654
 558414,23.2139259564\H,32.3594007992,32.4631545806,22.2246951491\H,32.
 1351432675,31.4752503353,23.5538723092\H,33.6868349948,34.3735645904,2
 2.4806522891\H,37.4029953503,36.2189475824,25.3328774332\H,38.61641414
 82,35.0581414878,24.8864396279\H,38.0539542412,35.8815447051,27.612097
 2212\H,39.4105519548,36.1145914146,26.7754994865\H,35.4774578513,31.63
 65799522,27.0305450294\H,37.4847571418,33.0799281399,27.5755190308\\Ve
 rsion=ES64L-G16RevB.01\State=1-A\HF=-617.454515\RMSD=8.208e-09\RMSF=3.
 694e-05\Dipole=-1.0330962,-1.0099205,-0.1118804\Quadrupole=-0.5937455,
 -2.2802101,2.8739557,5.6647116,8.4968775,5.4864475\PG=C01 [X(C7H9N5O1)
 ]\\@


 "A LITTLE BIT GOES A LONG WAY"
 R.S. MULLIKEN AS QUOTED BY K. RUEDENBERG
 Job cpu time:       0 days  0 hours 30 minutes 50.9 seconds.
 Elapsed time:       0 days  0 hours  3 minutes 55.1 seconds.
 File lengths (MBytes):  RWF=     47 Int=      0 D2E=      0 Chk=      5 Scr=      2
 Normal termination of Gaussian 16 at Tue Oct 28 03:36:16 2025.
